
    -----------------------------------------------------------------------
          Psi4: An Open-Source Ab Initio Electronic Structure Package
                               Psi4 1.8.1 release

                         Git: Rev {} zzzzzzz 


    D. G. A. Smith, L. A. Burns, A. C. Simmonett, R. M. Parrish,
    M. C. Schieber, R. Galvelis, P. Kraus, H. Kruse, R. Di Remigio,
    A. Alenaizan, A. M. James, S. Lehtola, J. P. Misiewicz, M. Scheurer,
    R. A. Shaw, J. B. Schriber, Y. Xie, Z. L. Glick, D. A. Sirianni,
    J. S. O'Brien, J. M. Waldrop, A. Kumar, E. G. Hohenstein,
    B. P. Pritchard, B. R. Brooks, H. F. Schaefer III, A. Yu. Sokolov,
    K. Patkowski, A. E. DePrince III, U. Bozkaya, R. A. King,
    F. A. Evangelista, J. M. Turney, T. D. Crawford, C. D. Sherrill,
    J. Chem. Phys. 152(18) 184108 (2020). https://doi.org/10.1063/5.0006002

                            Additional Code Authors
    E. T. Seidl, C. L. Janssen, E. F. Valeev, M. L. Leininger,
    J. F. Gonthier, R. M. Richard, H. R. McAlexander, M. Saitow, X. Wang,
    P. Verma, M. H. Lechner, A. Jiang, S. Behnle, A. G. Heide,
    M. F. Herbst, and D. L. Poole

             Previous Authors, Complete List of Code Contributors,
                       and Citations for Specific Modules
    https://github.com/psi4/psi4/blob/master/codemeta.json
    https://github.com/psi4/psi4/graphs/contributors
    http://psicode.org/psi4manual/master/introduction.html#citing-psifour

    -----------------------------------------------------------------------


    Psi4 started on: Friday, 15 September 2023 09:41AM

    Process ID: 32636
    Host:       sb103.cluster
    PSIDATADIR: /mnt/nfs/home/nca121/.conda/envs/p4env/share/psi4
    Memory:     500.0 MiB
    Threads:    4
    
  ==> Input File <==

--------------------------------------------------------------------------
molecule mol {

  noreorient

  nocom

  0 1

  O -0.441725969  0.405654699  0.224152058

  C  0.952345967  0.538462937 -0.032555223

  C  1.143980265  1.233094573 -1.374383688

  O  2.467077732  1.773290634 -1.406449676

  C  0.985560060  0.257294655 -2.534839153

  O -0.396745652  0.041104283 -2.798947811

  H -0.532666981 -0.039461162  1.083984137

  H  1.390232444  1.123285651  0.783144593

  H  1.392245412 -0.463723868 -0.041223831

  H  0.455191284  2.079832554 -1.471976757

  H  2.562606573  2.207801580 -2.266771555

  H  1.443327546 -0.711507380 -2.311905861

  H  1.432889819  0.657149851 -3.450341940

  H -0.443421751 -0.582687497 -3.540498734

}



set {

  basis 6-31G*
  DYNAMIC_LEVEL 3
}



optimize('scf')



E,wfn = prop('hf', properties = ['GRID_ESP', 'GRID_FIELD'], return_wfn=True)
--------------------------------------------------------------------------

Scratch directory: /mnt/storage/nobackup/nca121/scratch_dir/
gradient() will perform analytic gradient computation.
   => Libint2 <=

    Primary   basis highest AM E, G, H:  5, 4, 3
    Auxiliary basis highest AM E, G, H:  6, 5, 4
    Onebody   basis highest AM E, G, H:  6, 5, 4
    Solid Harmonics ordering:            gaussian

*** tstart() called on sb103.cluster
*** at Fri Sep 15 09:41:21 2023

   => Loading Basis Set <=

    Name: 6-31G*
    Role: ORBITAL
    Keyword: BASIS
    atoms 1, 4, 6 entry O          line   145 file /mnt/nfs/home/nca121/.conda/envs/p4env/share/psi4/basis/6-31gs.gbs 
    atoms 2-3, 5  entry C          line   111 file /mnt/nfs/home/nca121/.conda/envs/p4env/share/psi4/basis/6-31gs.gbs 
    atoms 7-14    entry H          line    44 file /mnt/nfs/home/nca121/.conda/envs/p4env/share/psi4/basis/6-31gs.gbs 


         ---------------------------------------------------------
                                   SCF
               by Justin Turney, Rob Parrish, Andy Simmonett
                          and Daniel G. A. Smith
                              RHF Reference
                        4 Threads,    500 MiB Core
         ---------------------------------------------------------

  ==> Geometry <==

    Molecular point group: c1
    Full point group: C1

    Geometry (in Angstrom), charge = 0, multiplicity = 1:

       Center              X                  Y                   Z               Mass       
    ------------   -----------------  -----------------  -----------------  -----------------
         O           -0.441725969000     0.405654699000     0.224152058000    15.994914619570
         C            0.952345967000     0.538462937000    -0.032555223000    12.000000000000
         C            1.143980265000     1.233094573000    -1.374383688000    12.000000000000
         O            2.467077732000     1.773290634000    -1.406449676000    15.994914619570
         C            0.985560060000     0.257294655000    -2.534839153000    12.000000000000
         O           -0.396745652000     0.041104283000    -2.798947811000    15.994914619570
         H           -0.532666981000    -0.039461162000     1.083984137000     1.007825032230
         H            1.390232444000     1.123285651000     0.783144593000     1.007825032230
         H            1.392245412000    -0.463723868000    -0.041223831000     1.007825032230
         H            0.455191284000     2.079832554000    -1.471976757000     1.007825032230
         H            2.562606573000     2.207801580000    -2.266771555000     1.007825032230
         H            1.443327546000    -0.711507380000    -2.311905861000     1.007825032230
         H            1.432889819000     0.657149851000    -3.450341940000     1.007825032230
         H           -0.443421751000    -0.582687497000    -3.540498734000     1.007825032230

  Running in c1 symmetry.

  Rotational constants: A =      0.11398  B =      0.04127  C =      0.03209 [cm^-1]
  Rotational constants: A =   3417.01995  B =   1237.12286  C =    962.06186 [MHz]
  Nuclear repulsion =  261.676331691510882

  Charge       = 0
  Multiplicity = 1
  Electrons    = 50
  Nalpha       = 25
  Nbeta        = 25

  ==> Algorithm <==

  SCF Algorithm Type is DF.
  DIIS enabled.
  MOM disabled.
  Fractional occupation disabled.
  Guess Type is SAD.
  Energy threshold   = 1.00e-08
  Density threshold  = 1.00e-08
  Integral threshold = 1.00e-12

  ==> Primary Basis <==

  Basis Set: 6-31G*
    Blend: 6-31G*
    Number of shells: 52
    Number of basis functions: 106
    Number of Cartesian functions: 106
    Spherical Harmonics?: false
    Max angular momentum: 2

   => Loading Basis Set <=

    Name: (6-31G* AUX)
    Role: JKFIT
    Keyword: DF_BASIS_SCF
    atoms 1, 4, 6 entry O          line   221 file /mnt/nfs/home/nca121/.conda/envs/p4env/share/psi4/basis/cc-pvdz-jkfit.gbs 
    atoms 2-3, 5  entry C          line   121 file /mnt/nfs/home/nca121/.conda/envs/p4env/share/psi4/basis/cc-pvdz-jkfit.gbs 
    atoms 7-14    entry H          line    51 file /mnt/nfs/home/nca121/.conda/envs/p4env/share/psi4/basis/cc-pvdz-jkfit.gbs 

  ==> Integral Setup <==

  DFHelper Memory: AOs need 0.063 GiB; user supplied 0.366 GiB. 
  Using in-core AOs.

  ==> MemDFJK: Density-Fitted J/K Matrices <==

    J tasked:                   Yes
    K tasked:                   Yes
    wK tasked:                   No
    OpenMP threads:               4
    Memory [MiB]:               375
    Algorithm:                 Core
    Schwarz Cutoff:           1E-12
    Mask sparsity (%):       1.2460
    Fitting Condition:        1E-10

   => Auxiliary Basis Set <=

  Basis Set: (6-31G* AUX)
    Blend: CC-PVDZ-JKFIT
    Number of shells: 216
    Number of basis functions: 686
    Number of Cartesian functions: 686
    Spherical Harmonics?: false
    Max angular momentum: 3

  Minimum eigenvalue in the overlap matrix is 3.2939808942E-03.
  Reciprocal condition number of the overlap matrix is 4.6115928500E-04.
    Using symmetric orthogonalization.

  ==> Pre-Iterations <==

  SCF Guess: Superposition of Atomic Densities via on-the-fly atomic UHF (no occupation information).

   -------------------------
    Irrep   Nso     Nmo    
   -------------------------
     A        106     106 
   -------------------------
    Total     106     106
   -------------------------

  ==> Iterations <==

                           Total Energy        Delta E     RMS |[F,P]|

   @DF-RHF iter SAD:  -341.67349870986919   -3.41673e+02   0.00000e+00 
   @DF-RHF iter   1:  -342.61625052865094   -9.42752e-01   5.67443e-03 DIIS/ADIIS
   @DF-RHF iter   2:  -342.75550386835789   -1.39253e-01   3.06728e-03 DIIS/ADIIS
   @DF-RHF iter   3:  -342.79174761283031   -3.62437e-02   4.90305e-04 DIIS/ADIIS
   @DF-RHF iter   4:  -342.79350409237782   -1.75648e-03   1.18211e-04 DIIS/ADIIS
   @DF-RHF iter   5:  -342.79359888028546   -9.47879e-05   3.16198e-05 DIIS
   @DF-RHF iter   6:  -342.79360653409958   -7.65381e-06   7.73198e-06 DIIS
   @DF-RHF iter   7:  -342.79360721208855   -6.77989e-07   2.01792e-06 DIIS
   @DF-RHF iter   8:  -342.79360725118966   -3.91011e-08   8.41507e-07 DIIS
   @DF-RHF iter   9:  -342.79360725703651   -5.84686e-09   1.59868e-07 DIIS
   @DF-RHF iter  10:  -342.79360725736467   -3.28157e-10   4.92238e-08 DIIS
   @DF-RHF iter  11:  -342.79360725739662   -3.19460e-11   1.61768e-08 DIIS
   @DF-RHF iter  12:  -342.79360725740031   -3.69482e-12   4.12075e-09 DIIS
  Energy and wave function converged.


  ==> Post-Iterations <==

    Orbital Energies [Eh]
    ---------------------

    Doubly Occupied:                                                      

       1A    -20.565399     2A    -20.556585     3A    -20.552781  
       4A    -11.282136     5A    -11.278345     6A    -11.273287  
       7A     -1.368427     8A     -1.348066     9A     -1.344264  
      10A     -1.021909    11A     -0.914605    12A     -0.803126  
      13A     -0.716357    14A     -0.676603    15A     -0.672143  
      16A     -0.655291    17A     -0.614592    18A     -0.584194  
      19A     -0.564541    20A     -0.526004    21A     -0.517935  
      22A     -0.472962    23A     -0.453881    24A     -0.437815  
      25A     -0.427632  

    Virtual:                                                              

      26A      0.206506    27A      0.217102    28A      0.235822  
      29A      0.273658    30A      0.306635    31A      0.310256  
      32A      0.334312    33A      0.343487    34A      0.396741  
      35A      0.411464    36A      0.415670    37A      0.474053  
      38A      0.495246    39A      0.744936    40A      0.753438  
      41A      0.797428    42A      0.834710    43A      0.850304  
      44A      0.888712    45A      0.938719    46A      0.990535  
      47A      1.027657    48A      1.058939    49A      1.072924  
      50A      1.106018    51A      1.115696    52A      1.124570  
      53A      1.142919    54A      1.172272    55A      1.187636  
      56A      1.218054    57A      1.241294    58A      1.255271  
      59A      1.262400    60A      1.268794    61A      1.325987  
      62A      1.350205    63A      1.404945    64A      1.455106  
      65A      1.497013    66A      1.557561    67A      1.668227  
      68A      1.725532    69A      1.732108    70A      1.786605  
      71A      1.898648    72A      1.931318    73A      1.945921  
      74A      1.993442    75A      2.040804    76A      2.057935  
      77A      2.099665    78A      2.153924    79A      2.212537  
      80A      2.214390    81A      2.268821    82A      2.363393  
      83A      2.403976    84A      2.414520    85A      2.429866  
      86A      2.487714    87A      2.604397    88A      2.648101  
      89A      2.706651    90A      2.722458    91A      2.791247  
      92A      2.817129    93A      2.836985    94A      2.852743  
      95A      2.915234    96A      2.995480    97A      3.065820  
      98A      3.216145    99A      3.258671   100A      3.323028  
     101A      4.050976   102A      4.265647   103A      4.288811  
     104A      4.624019   105A      4.829282   106A      4.986986  

    Final Occupation by Irrep:
              A 
    DOCC [    25 ]
    NA   [    25 ]
    NB   [    25 ]

  @DF-RHF Final Energy:  -342.79360725740031

   => Energetics <=

    Nuclear Repulsion Energy =            261.6763316915108817
    One-Electron Energy =                -989.6821140128888601
    Two-Electron Energy =                 385.2121750639776678
    Total Energy =                       -342.7936072574003106

Computation Completed


Properties will be evaluated at   0.000000,   0.000000,   0.000000 [a0]

Properties computed using the SCF density matrix


 Multipole Moments:

 ------------------------------------------------------------------------------------
     Multipole            Electronic (a.u.)      Nuclear  (a.u.)        Total (a.u.)
 ------------------------------------------------------------------------------------

 L = 1.  Multiply by 2.5417464519 to convert [e a0] to [Debye]
 Dipole X            :        -73.5881453           74.1161376            0.5279924
 Dipole Y            :        -65.1263512           64.6365697           -0.4897815
 Dipole Z            :        125.6458164         -126.0753873           -0.4295708
 Magnitude           :                                                    0.8385660

 ------------------------------------------------------------------------------------

*** tstop() called on sb103.cluster at Fri Sep 15 09:41:26 2023
Module time:
	user time   =       2.84 seconds =       0.05 minutes
	system time =       1.64 seconds =       0.03 minutes
	total time  =          5 seconds =       0.08 minutes
Total time:
	user time   =       2.84 seconds =       0.05 minutes
	system time =       1.64 seconds =       0.03 minutes
	total time  =          5 seconds =       0.08 minutes

*** tstart() called on sb103.cluster
*** at Fri Sep 15 09:41:26 2023


         ------------------------------------------------------------
                                   SCF GRAD                          
                          Rob Parrish, Justin Turney,                
                       Andy Simmonett, and Alex Sokolov              
         ------------------------------------------------------------

  ==> Geometry <==

    Molecular point group: c1
    Full point group: C1

    Geometry (in Angstrom), charge = 0, multiplicity = 1:

       Center              X                  Y                   Z               Mass       
    ------------   -----------------  -----------------  -----------------  -----------------
         O           -0.441725969000     0.405654699000     0.224152058000    15.994914619570
         C            0.952345967000     0.538462937000    -0.032555223000    12.000000000000
         C            1.143980265000     1.233094573000    -1.374383688000    12.000000000000
         O            2.467077732000     1.773290634000    -1.406449676000    15.994914619570
         C            0.985560060000     0.257294655000    -2.534839153000    12.000000000000
         O           -0.396745652000     0.041104283000    -2.798947811000    15.994914619570
         H           -0.532666981000    -0.039461162000     1.083984137000     1.007825032230
         H            1.390232444000     1.123285651000     0.783144593000     1.007825032230
         H            1.392245412000    -0.463723868000    -0.041223831000     1.007825032230
         H            0.455191284000     2.079832554000    -1.471976757000     1.007825032230
         H            2.562606573000     2.207801580000    -2.266771555000     1.007825032230
         H            1.443327546000    -0.711507380000    -2.311905861000     1.007825032230
         H            1.432889819000     0.657149851000    -3.450341940000     1.007825032230
         H           -0.443421751000    -0.582687497000    -3.540498734000     1.007825032230

  Nuclear repulsion =  261.676331691510882

  ==> Basis Set <==

  Basis Set: 6-31G*
    Blend: 6-31G*
    Number of shells: 52
    Number of basis functions: 106
    Number of Cartesian functions: 106
    Spherical Harmonics?: false
    Max angular momentum: 2

  ==> DFJKGrad: Density-Fitted SCF Gradients <==

    Gradient:                    1
    J tasked:                  Yes
    K tasked:                  Yes
    wK tasked:                  No
    OpenMP threads:              4
    Integrals threads:           4
    Memory [MiB]:              375
    Schwarz Cutoff:          1E-12
    Fitting Condition:       1E-10

   => Auxiliary Basis Set <=

  Basis Set: (6-31G* AUX)
    Blend: CC-PVDZ-JKFIT
    Number of shells: 216
    Number of basis functions: 686
    Number of Cartesian functions: 686
    Spherical Harmonics?: false
    Max angular momentum: 3


  -Total Gradient:
     Atom            X                  Y                   Z
    ------   -----------------  -----------------  -----------------
       1       -0.008981313493     0.009975202015    -0.019361534625
       2        0.016497951497     0.000823478087    -0.016575506083
       3       -0.011639056352    -0.009934367590     0.002578188191
       4        0.007645292562     0.001687320455     0.017695052039
       5        0.023278293134     0.008161478928     0.014557376576
       6       -0.011777358632     0.012685885611     0.015756684349
       7       -0.000183038372    -0.012397754397     0.024448033677
       8       -0.004148189469     0.002207773580     0.010238967932
       9       -0.004806196405    -0.008850414941     0.001155945532
      10        0.002683139820     0.013392519950    -0.001552161745
      11       -0.001616592279     0.008100903213    -0.021840610597
      12       -0.005003146434    -0.009511428984    -0.000500396183
      13       -0.004549557862    -0.000702090422    -0.007199678951
      14        0.002599772282    -0.015638505503    -0.019400360114


*** tstop() called on sb103.cluster at Fri Sep 15 09:41:28 2023
Module time:
	user time   =       1.48 seconds =       0.02 minutes
	system time =       0.38 seconds =       0.01 minutes
	total time  =          2 seconds =       0.03 minutes
Total time:
	user time   =       4.32 seconds =       0.07 minutes
	system time =       2.02 seconds =       0.03 minutes
	total time  =          7 seconds =       0.12 minutes

    			-----------------------------------------

    			 OPTKING 3.0: for geometry optimizations 

    			     By R.A. King, Bethel University     

    			        with contributions from          

    			    A.V. Copan, J. Cayton, A. Heide      

    			-----------------------------------------

    
	                            ===> Fragment 1 <== 

	 Z (Atomic Numbers)          Masses                          Geom                  
	       8.000000            15.994915         -0.83474110  0.76657628  0.42358600   
	       6.000000            12.000000          1.79967305  1.01754748 -0.06152046   
	       6.000000            12.000000          2.16180939  2.33021103 -2.59720876   
	       8.000000            15.994915          4.66210124  3.35103364 -2.65780470   
	       6.000000            12.000000          1.86243859  0.48621643 -4.79015177   
	       8.000000            15.994915         -0.74974062  0.07767584 -5.28924480   
	       1.000000             1.007825         -1.00659471 -0.07457079  2.04843314   
	       1.000000             1.007825          2.62715857  2.12270224  1.47992880   
	       1.000000             1.007825          2.63096253 -0.87631111 -0.07790175   
	       1.000000             1.007825          0.86018686  3.93031391 -2.78163293   
	       1.000000             1.007825          4.84262459  4.17214033 -4.28357743   
	       1.000000             1.007825          2.72749377 -1.34455408 -4.36886891   
	       1.000000             1.007825          2.70776933  1.24183324 -6.52020131   
	       1.000000             1.007825         -0.83794567 -1.10111979 -6.69057295   

	 - Coordinate -           - BOHR/RAD -       - ANG/DEG -
	 H(1,8)           =         3.865189           2.045370
	 H(1,9)           =         3.868032           2.046874
	 H(4,10)          =         3.847785           2.036160
	 H(6,12)          =         3.867944           2.046828
	 H(6,13)          =         3.850311           2.037497
	 R(1,2)           =         2.690437           1.423718
	 R(1,7)           =         1.837713           0.972476
	 R(2,3)           =         2.878184           1.523069
	 R(2,8)           =         2.069339           1.095047
	 R(2,9)           =         2.068335           1.094516
	 R(3,4)           =         2.701335           1.429485
	 R(3,5)           =         2.880788           1.524447
	 R(3,10)          =         2.070885           1.095865
	 R(4,11)          =         1.830285           0.968545
	 R(5,6)           =         2.690628           1.423819
	 R(5,12)          =         2.068217           1.094453
	 R(5,13)          =         2.068481           1.094593
	 R(6,14)          =         1.833319           0.970151
	 B(1,2,3)         =         1.901381         108.941128
	 B(1,2,8)         =         1.882899         107.882144
	 B(1,2,9)         =         1.885524         108.032573
	 B(2,1,7)         =         1.868878         107.078802
	 B(2,3,4)         =         1.884483         107.972939
	 B(2,3,5)         =         1.945114         111.446835
	 B(2,3,10)        =         1.930256         110.595500
	 B(3,2,8)         =         1.941610         111.246046
	 B(3,2,9)         =         1.939122         111.103531
	 B(3,4,11)        =         1.855370         106.304889
	 B(3,5,6)         =         1.916953         109.833301
	 B(3,5,12)        =         1.947749         111.597817
	 B(3,5,13)        =         1.939477         111.123820
	 B(4,3,5)         =         1.897583         108.723483
	 B(4,3,10)        =         1.862696         106.724607
	 B(5,3,10)        =         1.940646         111.190826
	 B(5,6,14)        =         1.860975         106.626041
	 B(6,5,12)        =         1.885405         108.025725
	 B(6,5,13)        =         1.872429         107.282278
	 B(8,2,9)         =         1.911546         109.523508
	 B(12,5,13)       =         1.899479         108.832111
	 D(1,2,3,4)       =         2.792527         159.999999
	 D(1,2,3,5)       =        -1.407760         -80.658726
	 D(1,2,3,10)      =         0.760450          43.570591
	 D(2,3,4,11)      =         3.141593         180.000000
	 D(2,3,5,6)       =         1.396263          79.999995
	 D(2,3,5,12)      =        -0.694191         -39.774211
	 D(2,3,5,13)      =        -2.817853        -161.451070
	 D(3,2,1,7)       =         3.141593         180.000000
	 D(3,5,6,14)      =         3.141593         180.000000
	 D(4,3,2,8)       =         0.719091          41.200907
	 D(4,3,2,9)       =        -1.415496         -81.101923
	 D(4,3,5,6)       =        -2.811824        -161.105626
	 D(4,3,5,12)      =         1.380907          79.120168
	 D(4,3,5,13)      =        -0.742754         -42.556691
	 D(5,3,2,8)       =         2.801990         160.542183
	 D(5,3,2,9)       =         0.667403          38.239353
	 D(5,3,4,11)      =         1.028825          58.947351
	 D(6,5,3,10)      =        -0.766081         -43.893181
	 D(7,1,2,8)       =        -1.031780         -59.116632
	 D(7,1,2,9)       =         1.033225          59.199419
	 D(8,2,3,10)      =        -1.312985         -75.228500
	 D(9,2,3,10)      =         2.835613         162.468670
	 D(10,3,4,11)     =        -1.066005         -61.077613
	 D(10,3,5,12)     =        -2.856535        -163.667387
	 D(10,3,5,13)     =         1.302989          74.655754
	 D(12,5,6,14)     =        -1.013531         -58.071027
	 D(13,5,6,14)     =         1.031608          59.106768


	        --- Internal Coordinate Step in ANG or DEG, aJ/ANG or AJ/DEG ---
	-------------------------------------------------------------------------------
	           Coordinate      Previous         Force          Change          New 
	           ----------      --------        ------          ------        ------
	               H(1,8)       2.04537       -0.00756        0.01583       2.06120
	               H(1,9)       2.04687       -0.01068        0.01655       2.06343
	              H(4,10)       2.03616       -0.00848        0.02537       2.06153
	              H(6,12)       2.04683       -0.00911        0.01719       2.06402
	              H(6,13)       2.03750       -0.00462        0.01672       2.05421
	               R(1,2)       1.42372       -0.06765       -0.01463       1.40909
	               R(1,7)       0.97248       -0.22498       -0.02667       0.94581
	               R(2,3)       1.52307       -0.03197       -0.00654       1.51653
	               R(2,8)       1.09505       -0.05322       -0.01182       1.08322
	               R(2,9)       1.09452       -0.04277       -0.01045       1.08407
	               R(3,4)       1.42948       -0.06995       -0.01332       1.41616
	               R(3,5)       1.52445       -0.00234       -0.00048       1.52397
	              R(3,10)       1.09586       -0.06622       -0.01491       1.08096
	              R(4,11)       0.96854       -0.18846       -0.02201       0.94653
	               R(5,6)       1.42382       -0.07086       -0.01474       1.40908
	              R(5,12)       1.09445       -0.04446       -0.01059       1.08387
	              R(5,13)       1.09459       -0.02874       -0.00714       1.08745
	              R(6,14)       0.97015       -0.20398       -0.02397       0.94618
	             B(1,2,3)     108.94113       -0.00045       -0.60893     108.33220
	             B(1,2,8)     107.88214        0.00061        3.03061     110.91276
	             B(1,2,9)     108.03257        0.00054        3.01082     111.04339
	             B(2,1,7)     107.07880        0.00033        1.44771     108.52651
	             B(2,3,4)     107.97294       -0.00085       -3.11296     104.85998
	             B(2,3,5)     111.44684        0.00107        3.29992     114.74676
	            B(2,3,10)     110.59550       -0.00037       -2.47457     108.12093
	             B(3,2,8)     111.24605       -0.00044       -2.98047     108.26558
	             B(3,2,9)     111.10353       -0.00018       -1.27614     109.82739
	            B(3,4,11)     106.30489        0.00063        2.75535     109.06023
	             B(3,5,6)     109.83330       -0.00038       -0.40853     109.42477
	            B(3,5,12)     111.59782       -0.00033       -2.07389     109.52393
	            B(3,5,13)     111.12382       -0.00033       -2.27402     108.84980
	             B(4,3,5)     108.72348       -0.00001        0.80282     109.52630
	            B(4,3,10)     106.72461        0.00067        3.85007     110.57467
	            B(5,3,10)     111.19083       -0.00054       -2.24642     108.94440
	            B(5,6,14)     106.62604        0.00053        2.30102     108.92706
	            B(6,5,12)     108.02572        0.00058        3.08023     111.10596
	            B(6,5,13)     107.28228        0.00052        2.78944     110.07171
	             B(8,2,9)     109.52351       -0.00003       -1.10621     108.41729
	           B(12,5,13)     108.83211       -0.00000       -1.01073     107.82138
	           D(1,2,3,4)     160.00000        0.00001        1.10246     161.10246
	           D(1,2,3,5)     -80.65873        0.00009        1.96474     -78.69398
	          D(1,2,3,10)      43.57059       -0.00010       -0.46305      43.10754
	          D(2,3,4,11)     180.00000        0.00048        4.39296     184.39296
	           D(2,3,5,6)      80.00000        0.00010       -1.74213      78.25786
	          D(2,3,5,12)     -39.77421       -0.00017       -3.98448     -43.75869
	          D(2,3,5,13)    -161.45107        0.00030        0.03526    -161.41581
	           D(3,2,1,7)     180.00000        0.00008        0.17875     180.17875
	          D(3,5,6,14)     180.00000        0.00001        1.04646     181.04646
	           D(4,3,2,8)      41.20091       -0.00019       -0.45250      40.74840
	           D(4,3,2,9)     -81.10192        0.00028        3.64265     -77.45927
	           D(4,3,5,6)    -161.10563       -0.00031       -3.05001    -164.15564
	          D(4,3,5,12)      79.12017       -0.00057       -5.29236      73.82781
	          D(4,3,5,13)     -42.55669       -0.00011       -1.27262     -43.82932
	           D(5,3,2,8)     160.54218       -0.00011        0.40978     160.95197
	           D(5,3,2,9)      38.23935        0.00036        4.50494      42.74429
	          D(5,3,4,11)      58.94735       -0.00030        1.83011      60.77746
	          D(6,5,3,10)     -43.89318        0.00019        0.79865     -43.09453
	           D(7,1,2,8)     -59.11663       -0.00035       -2.01432     -61.13095
	           D(7,1,2,9)      59.19942        0.00024        0.29328      59.49270
	          D(8,2,3,10)     -75.22850       -0.00030       -2.01801     -77.24651
	          D(9,2,3,10)     162.46867        0.00017        2.07715     164.54582
	         D(10,3,4,11)     -61.07761       -0.00003        1.78563     -59.29198
	         D(10,3,5,12)    -163.66739       -0.00007       -1.44370    -165.11108
	         D(10,3,5,13)      74.65575        0.00039        2.57604      77.23179
	         D(12,5,6,14)     -58.07103       -0.00026        0.17973     -57.89130
	         D(13,5,6,14)      59.10677        0.00031        2.36267      61.46944
	-------------------------------------------------------------------------------

	                                 ==> Convergence Check <==                                  
    
	Measures of convergence in internal coordinates in au.
    
	Criteria marked as inactive (o), active & met (*), and active & unmet ( ).

	----------------------------------------------------------------------------------------------
	   Step    Total Energy     Delta E     Max Force     RMS Force      Max Disp      RMS Disp   
	----------------------------------------------------------------------------------------------
	  Convergence Criteria     1.00e-06 *    3.00e-04 *             o    1.20e-03 *             o
	----------------------------------------------------------------------------------------------
	     1    -342.79360726   -3.43e+02      2.73e-02      7.35e-03 o    9.24e-02      3.89e-02 o  ~
	----------------------------------------------------------------------------------------------

Next Geometry in Ang 
	Fragment 1 (Ang)

	    O  -0.4295395792   0.3990028479   0.2158671008
	    C   0.9510003988   0.5453706830  -0.0254066965
	    C   1.1315994165   1.1938475371  -1.3843479984
	    O   2.4510915265   1.7078682305  -1.3690064878
	    C   0.9666240389   0.2493474028  -2.5689042670
	    O  -0.4048511902   0.0259095894  -2.8026254698
	    H  -0.5454162127  -0.0027961652   1.0642109122
	    H   1.4079993608   1.1853102779   0.7195777715
	    H   1.4534231390  -0.4150541007  -0.0066023299
	    H   0.4124135563   1.9960336771  -1.4723188141
	    H   2.6050855057   2.1880683072  -2.1700176786
	    H   1.4844752972  -0.6808046739  -2.3653924423
	    H   1.4257776454   0.7010929637  -3.4450602689
	    H  -0.4987861541  -0.5736050668  -3.5285867722


    Structure for next step:
    Molecular point group: c1
    Full point group: C1

    Geometry (in Angstrom), charge = 0, multiplicity = 1:

    O           -0.429539579178     0.399002847914     0.215867100820
    C            0.951000398836     0.545370682960    -0.025406696502
    C            1.131599416515     1.193847537147    -1.384347998368
    O            2.451091526482     1.707868230478    -1.369006487846
    C            0.966624038923     0.249347402750    -2.568904267044
    O           -0.404851190169     0.025909589399    -2.802625469810
    H           -0.545416212706    -0.002796165225     1.064210912206
    H            1.407999360772     1.185310277916     0.719577771534
    H            1.453423139014    -0.415054100690    -0.006602329863
    H            0.412413556254     1.996033677087    -1.472318814108
    H            2.605085505727     2.188068307230    -2.170017678629
    H            1.484475297198    -0.680804673886    -2.365392442309
    H            1.425777645432     0.701092963701    -3.445060268868
    H           -0.498786154101    -0.573605066781    -3.528586772212


Scratch directory: /mnt/storage/nobackup/nca121/scratch_dir/
gradient() will perform analytic gradient computation.
   => Libint2 <=

    Primary   basis highest AM E, G, H:  5, 4, 3
    Auxiliary basis highest AM E, G, H:  6, 5, 4
    Onebody   basis highest AM E, G, H:  6, 5, 4
    Solid Harmonics ordering:            gaussian

*** tstart() called on sb103.cluster
*** at Fri Sep 15 09:41:29 2023

   => Loading Basis Set <=

    Name: 6-31G*
    Role: ORBITAL
    Keyword: BASIS
    atoms 1, 4, 6 entry O          line   145 file /mnt/nfs/home/nca121/.conda/envs/p4env/share/psi4/basis/6-31gs.gbs 
    atoms 2-3, 5  entry C          line   111 file /mnt/nfs/home/nca121/.conda/envs/p4env/share/psi4/basis/6-31gs.gbs 
    atoms 7-14    entry H          line    44 file /mnt/nfs/home/nca121/.conda/envs/p4env/share/psi4/basis/6-31gs.gbs 


         ---------------------------------------------------------
                                   SCF
               by Justin Turney, Rob Parrish, Andy Simmonett
                          and Daniel G. A. Smith
                              RHF Reference
                        4 Threads,    500 MiB Core
         ---------------------------------------------------------

  ==> Geometry <==

    Molecular point group: c1
    Full point group: C1

    Geometry (in Angstrom), charge = 0, multiplicity = 1:

       Center              X                  Y                   Z               Mass       
    ------------   -----------------  -----------------  -----------------  -----------------
         O           -0.429539579178     0.399002847914     0.215867100820    15.994914619570
         C            0.951000398836     0.545370682960    -0.025406696502    12.000000000000
         C            1.131599416515     1.193847537147    -1.384347998368    12.000000000000
         O            2.451091526482     1.707868230478    -1.369006487846    15.994914619570
         C            0.966624038923     0.249347402750    -2.568904267044    12.000000000000
         O           -0.404851190169     0.025909589399    -2.802625469810    15.994914619570
         H           -0.545416212706    -0.002796165225     1.064210912206     1.007825032230
         H            1.407999360772     1.185310277916     0.719577771534     1.007825032230
         H            1.453423139014    -0.415054100690    -0.006602329863     1.007825032230
         H            0.412413556254     1.996033677087    -1.472318814108     1.007825032230
         H            2.605085505727     2.188068307230    -2.170017678629     1.007825032230
         H            1.484475297198    -0.680804673886    -2.365392442309     1.007825032230
         H            1.425777645432     0.701092963701    -3.445060268868     1.007825032230
         H           -0.498786154101    -0.573605066781    -3.528586772212     1.007825032230

  Running in c1 symmetry.

  Rotational constants: A =      0.11389  B =      0.04198  C =      0.03243 [cm^-1]
  Rotational constants: A =   3414.48388  B =   1258.67514  C =    972.09127 [MHz]
  Nuclear repulsion =  263.621388576735967

  Charge       = 0
  Multiplicity = 1
  Electrons    = 50
  Nalpha       = 25
  Nbeta        = 25

  ==> Algorithm <==

  SCF Algorithm Type is DF.
  DIIS enabled.
  MOM disabled.
  Fractional occupation disabled.
  Guess Type is READ.
  Energy threshold   = 1.00e-08
  Density threshold  = 1.00e-08
  Integral threshold = 1.00e-12

  ==> Primary Basis <==

  Basis Set: 6-31G*
    Blend: 6-31G*
    Number of shells: 52
    Number of basis functions: 106
    Number of Cartesian functions: 106
    Spherical Harmonics?: false
    Max angular momentum: 2

   => Loading Basis Set <=

    Name: (6-31G* AUX)
    Role: JKFIT
    Keyword: DF_BASIS_SCF
    atoms 1, 4, 6 entry O          line   221 file /mnt/nfs/home/nca121/.conda/envs/p4env/share/psi4/basis/cc-pvdz-jkfit.gbs 
    atoms 2-3, 5  entry C          line   121 file /mnt/nfs/home/nca121/.conda/envs/p4env/share/psi4/basis/cc-pvdz-jkfit.gbs 
    atoms 7-14    entry H          line    51 file /mnt/nfs/home/nca121/.conda/envs/p4env/share/psi4/basis/cc-pvdz-jkfit.gbs 

   => Loading Basis Set <=

    Name: 6-31G*
    Role: ORBITAL
    Keyword: BASIS
    atoms 1, 4, 6 entry O          line   145 file /mnt/nfs/home/nca121/.conda/envs/p4env/share/psi4/basis/6-31gs.gbs 
    atoms 2-3, 5  entry C          line   111 file /mnt/nfs/home/nca121/.conda/envs/p4env/share/psi4/basis/6-31gs.gbs 
    atoms 7-14    entry H          line    44 file /mnt/nfs/home/nca121/.conda/envs/p4env/share/psi4/basis/6-31gs.gbs 

  Reading orbitals from file /mnt/storage/nobackup/nca121/scratch_dir/out.mol.32636.180.npy, no projection.

  ==> Integral Setup <==

  DFHelper Memory: AOs need 0.063 GiB; user supplied 0.366 GiB. 
  Using in-core AOs.

  ==> MemDFJK: Density-Fitted J/K Matrices <==

    J tasked:                   Yes
    K tasked:                   Yes
    wK tasked:                   No
    OpenMP threads:               4
    Memory [MiB]:               375
    Algorithm:                 Core
    Schwarz Cutoff:           1E-12
    Mask sparsity (%):       1.2460
    Fitting Condition:        1E-10

   => Auxiliary Basis Set <=

  Basis Set: (6-31G* AUX)
    Blend: CC-PVDZ-JKFIT
    Number of shells: 216
    Number of basis functions: 686
    Number of Cartesian functions: 686
    Spherical Harmonics?: false
    Max angular momentum: 3

  Minimum eigenvalue in the overlap matrix is 3.2448070908E-03.
  Reciprocal condition number of the overlap matrix is 4.5008058005E-04.
    Using symmetric orthogonalization.

  ==> Pre-Iterations <==

  SCF Guess: Orbitals guess was supplied from a previous computation.

   -------------------------------------------------------
    Irrep   Nso     Nmo     Nalpha   Nbeta   Ndocc  Nsocc
   -------------------------------------------------------
     A        106     106      25      25      25       0
   -------------------------------------------------------
    Total     106     106      25      25      25       0
   -------------------------------------------------------

  ==> Iterations <==

                           Total Energy        Delta E     RMS |[F,P]|

   @DF-RHF iter   0:  -342.87526188087571   -3.42875e+02   1.35758e-03 
   @DF-RHF iter   1:  -342.80009512106545    7.51668e-02   2.39275e-04 DIIS/ADIIS
   @DF-RHF iter   2:  -342.80060683906299   -5.11718e-04   8.95578e-05 DIIS
   @DF-RHF iter   3:  -342.80068163259801   -7.47935e-05   4.07783e-05 DIIS
   @DF-RHF iter   4:  -342.80069688704407   -1.52544e-05   9.77761e-06 DIIS
   @DF-RHF iter   5:  -342.80069796071092   -1.07367e-06   3.20548e-06 DIIS
   @DF-RHF iter   6:  -342.80069810120295   -1.40492e-07   1.02335e-06 DIIS
   @DF-RHF iter   7:  -342.80069811575822   -1.45553e-08   2.67790e-07 DIIS
   @DF-RHF iter   8:  -342.80069811695034   -1.19212e-09   7.82634e-08 DIIS
   @DF-RHF iter   9:  -342.80069811700855   -5.82077e-11   2.77715e-08 DIIS
   @DF-RHF iter  10:  -342.80069811701691   -8.35598e-12   6.38009e-09 DIIS
  Energy and wave function converged.


  ==> Post-Iterations <==

    Orbital Energies [Eh]
    ---------------------

    Doubly Occupied:                                                      

       1A    -20.562044     2A    -20.555583     3A    -20.550150  
       4A    -11.273778     5A    -11.273097     6A    -11.265185  
       7A     -1.376260     8A     -1.357249     9A     -1.353185  
      10A     -1.024575    11A     -0.922670    12A     -0.803422  
      13A     -0.730843    14A     -0.687737    15A     -0.673092  
      16A     -0.657784    17A     -0.618030    18A     -0.581917  
      19A     -0.566357    20A     -0.528296    21A     -0.521109  
      22A     -0.473050    23A     -0.451087    24A     -0.436106  
      25A     -0.428335  

    Virtual:                                                              

      26A      0.215333    27A      0.222969    28A      0.242173  
      29A      0.280878    30A      0.310866    31A      0.317775  
      32A      0.337918    33A      0.349585    34A      0.408625  
      35A      0.411984    36A      0.421307    37A      0.480205  
      38A      0.507149    39A      0.740462    40A      0.745525  
      41A      0.807300    42A      0.844151    43A      0.859701  
      44A      0.892597    45A      0.952462    46A      0.980029  
      47A      1.038713    48A      1.064056    49A      1.080150  
      50A      1.104002    51A      1.123741    52A      1.129218  
      53A      1.149150    54A      1.184747    55A      1.198043  
      56A      1.226303    57A      1.250681    58A      1.263267  
      59A      1.278292    60A      1.287529    61A      1.334060  
      62A      1.344160    63A      1.388785    64A      1.456994  
      65A      1.487833    66A      1.571891    67A      1.691539  
      68A      1.740380    69A      1.741303    70A      1.797822  
      71A      1.916142    72A      1.929251    73A      1.947212  
      74A      1.993785    75A      2.036306    76A      2.051414  
      77A      2.079667    78A      2.156162    79A      2.222602  
      80A      2.232786    81A      2.284471    82A      2.387522  
      83A      2.407524    84A      2.426136    85A      2.438581  
      86A      2.487469    87A      2.565663    88A      2.670385  
      89A      2.710597    90A      2.752684    91A      2.816137  
      92A      2.850196    93A      2.878984    94A      2.890002  
      95A      2.927335    96A      3.026202    97A      3.059290  
      98A      3.227311    99A      3.269750   100A      3.331846  
     101A      4.066665   102A      4.277091   103A      4.308470  
     104A      4.622616   105A      4.829737   106A      4.996259  

    Final Occupation by Irrep:
              A 
    DOCC [    25 ]
    NA   [    25 ]
    NB   [    25 ]

  @DF-RHF Final Energy:  -342.80069811701691

   => Energetics <=

    Nuclear Repulsion Energy =            263.6213885767359670
    One-Electron Energy =                -993.5022949466256250
    Two-Electron Energy =                 387.0802082528727510
    Total Energy =                       -342.8006981170169070

Computation Completed


Properties will be evaluated at   0.000000,   0.000000,   0.000000 [a0]

Properties computed using the SCF density matrix


 Multipole Moments:

 ------------------------------------------------------------------------------------
     Multipole            Electronic (a.u.)      Nuclear  (a.u.)        Total (a.u.)
 ------------------------------------------------------------------------------------

 L = 1.  Multiply by 2.5417464519 to convert [e a0] to [Debye]
 Dipole X            :        -73.1533302           73.6500373            0.4967072
 Dipole Y            :        -63.5047828           63.1015161           -0.4032667
 Dipole Z            :        125.6545554         -126.0868021           -0.4322467
 Magnitude           :                                                    0.7721265

 ------------------------------------------------------------------------------------

*** tstop() called on sb103.cluster at Fri Sep 15 09:41:32 2023
Module time:
	user time   =       2.10 seconds =       0.03 minutes
	system time =       1.06 seconds =       0.02 minutes
	total time  =          3 seconds =       0.05 minutes
Total time:
	user time   =       6.92 seconds =       0.12 minutes
	system time =       3.52 seconds =       0.06 minutes
	total time  =         11 seconds =       0.18 minutes

*** tstart() called on sb103.cluster
*** at Fri Sep 15 09:41:32 2023


         ------------------------------------------------------------
                                   SCF GRAD                          
                          Rob Parrish, Justin Turney,                
                       Andy Simmonett, and Alex Sokolov              
         ------------------------------------------------------------

  ==> Geometry <==

    Molecular point group: c1
    Full point group: C1

    Geometry (in Angstrom), charge = 0, multiplicity = 1:

       Center              X                  Y                   Z               Mass       
    ------------   -----------------  -----------------  -----------------  -----------------
         O           -0.429539579178     0.399002847914     0.215867100820    15.994914619570
         C            0.951000398836     0.545370682960    -0.025406696502    12.000000000000
         C            1.131599416515     1.193847537147    -1.384347998368    12.000000000000
         O            2.451091526482     1.707868230478    -1.369006487846    15.994914619570
         C            0.966624038923     0.249347402750    -2.568904267044    12.000000000000
         O           -0.404851190169     0.025909589399    -2.802625469810    15.994914619570
         H           -0.545416212706    -0.002796165225     1.064210912206     1.007825032230
         H            1.407999360772     1.185310277916     0.719577771534     1.007825032230
         H            1.453423139014    -0.415054100690    -0.006602329863     1.007825032230
         H            0.412413556254     1.996033677087    -1.472318814108     1.007825032230
         H            2.605085505727     2.188068307230    -2.170017678629     1.007825032230
         H            1.484475297198    -0.680804673886    -2.365392442309     1.007825032230
         H            1.425777645432     0.701092963701    -3.445060268868     1.007825032230
         H           -0.498786154101    -0.573605066781    -3.528586772212     1.007825032230

  Nuclear repulsion =  263.621388576735967

  ==> Basis Set <==

  Basis Set: 6-31G*
    Blend: 6-31G*
    Number of shells: 52
    Number of basis functions: 106
    Number of Cartesian functions: 106
    Spherical Harmonics?: false
    Max angular momentum: 2

  ==> DFJKGrad: Density-Fitted SCF Gradients <==

    Gradient:                    1
    J tasked:                  Yes
    K tasked:                  Yes
    wK tasked:                  No
    OpenMP threads:              4
    Integrals threads:           4
    Memory [MiB]:              375
    Schwarz Cutoff:          1E-12
    Fitting Condition:       1E-10

   => Auxiliary Basis Set <=

  Basis Set: (6-31G* AUX)
    Blend: CC-PVDZ-JKFIT
    Number of shells: 216
    Number of basis functions: 686
    Number of Cartesian functions: 686
    Spherical Harmonics?: false
    Max angular momentum: 3


  -Total Gradient:
     Atom            X                  Y                   Z
    ------   -----------------  -----------------  -----------------
       1       -0.006986379303     0.000642519251    -0.000842609449
       2        0.011487792890     0.000355589484    -0.000315108964
       3       -0.007870665974    -0.003435794094    -0.000873413707
       4        0.003460177778     0.003940311546     0.002549975507
       5        0.010572286858     0.000940581223     0.000503725063
       6       -0.007971623562    -0.001475265674    -0.001042306035
       7        0.001600694265     0.000504835630    -0.000464015104
       8       -0.000884027874    -0.001190106530    -0.000289485002
       9       -0.002013741815     0.001752931512    -0.000950638432
      10        0.002400973852    -0.001910421126     0.000819345804
      11       -0.001188957866    -0.001229149129    -0.000280969570
      12       -0.002209206115     0.001710367876     0.000409769783
      13       -0.001196661753    -0.001135698651     0.000867844048
      14        0.000799338617     0.000529298681    -0.000092113942


*** tstop() called on sb103.cluster at Fri Sep 15 09:41:34 2023
Module time:
	user time   =       1.48 seconds =       0.02 minutes
	system time =       0.41 seconds =       0.01 minutes
	total time  =          2 seconds =       0.03 minutes
Total time:
	user time   =       8.41 seconds =       0.14 minutes
	system time =       3.93 seconds =       0.07 minutes
	total time  =         13 seconds =       0.22 minutes

    			-----------------------------------------

    			 OPTKING 3.0: for geometry optimizations 

    			     By R.A. King, Bethel University     

    			        with contributions from          

    			    A.V. Copan, J. Cayton, A. Heide      

    			-----------------------------------------

    
	                            ===> Fragment 1 <== 

	 Z (Atomic Numbers)          Masses                          Geom                  
	       8.000000            15.994915         -0.81171216  0.75400611  0.40792970   
	       6.000000            12.000000          1.79713030  1.03060123 -0.04801170   
	       6.000000            12.000000          2.13841298  2.25604488 -2.61603858   
	       8.000000            15.994915          4.63189169  3.22740321 -2.58704733   
	       6.000000            12.000000          1.82665470  0.47119830 -4.85452551   
	       8.000000            15.994915         -0.76505787  0.04896203 -5.29619457   
	       1.000000             1.007825         -1.03068727 -0.00528399  2.01106716   
	       1.000000             1.007825          2.66073318  2.23991180  1.35980491   
	       1.000000             1.007825          2.74657168 -0.78433858 -0.01247660   
	       1.000000             1.007825          0.77934867  3.77195699 -2.78227933   
	       1.000000             1.007825          4.92289814  4.13484984 -4.10073910   
	       1.000000             1.007825          2.80525175 -1.28653438 -4.46994390   
	       1.000000             1.007825          2.69432927  1.32487369 -6.51022039   
	       1.000000             1.007825         -0.94256923 -1.08395648 -6.66806261   

	 - Coordinate -           - BOHR/RAD -       - ANG/DEG -
	 H(1,8)           =         3.895107           2.061202
	 H(1,9)           =         3.899311           2.063427
	 H(4,10)          =         3.895734           2.061534
	 H(6,12)          =         3.900430           2.064018
	 H(6,13)          =         3.881903           2.054214
	 R(1,2)           =         2.662789           1.409087
	 R(1,7)           =         1.787322           0.945810
	 R(2,3)           =         2.865824           1.516529
	 R(2,8)           =         2.046995           1.083223
	 R(2,9)           =         2.048587           1.084065
	 R(3,4)           =         2.676156           1.416161
	 R(3,5)           =         2.879877           1.523966
	 R(3,10)          =         2.042714           1.080958
	 R(4,11)          =         1.788689           0.946533
	 R(5,6)           =         2.662767           1.409076
	 R(5,12)          =         2.048214           1.083868
	 R(5,13)          =         2.054981           1.087449
	 R(6,14)          =         1.788026           0.946183
	 B(1,2,3)         =         1.890754         108.332197
	 B(1,2,8)         =         1.935793         110.912755
	 B(1,2,9)         =         1.938073         111.043395
	 B(2,1,7)         =         1.894145         108.526509
	 B(2,3,4)         =         1.830152         104.859982
	 B(2,3,5)         =         2.002709         114.746759
	 B(2,3,10)        =         1.887066         108.120926
	 B(3,2,8)         =         1.889591         108.265576
	 B(3,2,9)         =         1.916850         109.827393
	 B(3,4,11)        =         1.903460         109.060235
	 B(3,5,6)         =         1.909822         109.424768
	 B(3,5,12)        =         1.911553         109.523927
	 B(3,5,13)        =         1.899787         108.849799
	 B(4,3,5)         =         1.911595         109.526299
	 B(4,3,10)        =         1.929892         110.574674
	 B(5,3,10)        =         1.901439         108.944403
	 B(5,6,14)        =         1.901136         108.927061
	 B(6,5,12)        =         1.939165         111.105959
	 B(6,5,13)        =         1.921114         110.071714
	 B(8,2,9)         =         1.892239         108.417294
	 B(12,5,13)       =         1.881838         107.821381
	 D(1,2,3,4)       =         2.811768         161.102455
	 D(1,2,3,5)       =        -1.373469         -78.693982
	 D(1,2,3,10)      =         0.752369          43.107542
	 D(2,3,4,11)      =         3.218264         184.392961
	 D(2,3,5,6)       =         1.365857          78.257863
	 D(2,3,5,12)      =        -0.763733         -43.758688
	 D(2,3,5,13)      =        -2.817237        -161.415814
	 D(3,2,1,7)       =         3.144712         180.178753
	 D(3,5,6,14)      =         3.159857         181.046456
	 D(4,3,2,8)       =         0.711194          40.748404
	 D(4,3,2,9)       =        -1.351919         -77.459270
	 D(4,3,5,6)       =        -2.865056        -164.155639
	 D(4,3,5,12)      =         1.288538          73.827810
	 D(4,3,5,13)      =        -0.764966         -43.829316
	 D(5,3,2,8)       =         2.809142         160.951967
	 D(5,3,2,9)       =         0.746029          42.744293
	 D(5,3,4,11)      =         1.060767          60.777464
	 D(6,5,3,10)      =        -0.752141         -43.094532
	 D(7,1,2,8)       =        -1.066936         -61.130947
	 D(7,1,2,9)       =         1.038344          59.492702
	 D(8,2,3,10)      =        -1.348206         -77.246509
	 D(9,2,3,10)      =         2.871866         164.545817
	 D(10,3,4,11)     =        -1.034840         -59.291978
	 D(10,3,5,12)     =        -2.881732        -165.111083
	 D(10,3,5,13)     =         1.347949          77.231792
	 D(12,5,6,14)     =        -1.010394         -57.891301
	 D(13,5,6,14)     =         1.072844          61.469441


	        --- Internal Coordinate Step in ANG or DEG, aJ/ANG or AJ/DEG ---
	-------------------------------------------------------------------------------
	           Coordinate      Previous         Force          Change          New 
	           ----------      --------        ------          ------        ------
	               H(1,8)       2.06120       -0.00787       -0.00091       2.06029
	               H(1,9)       2.06343       -0.00850       -0.00200       2.06143
	              H(4,10)       2.06153        0.00241        0.00823       2.06977
	              H(6,12)       2.06402       -0.00862        0.00002       2.06404
	              H(6,13)       2.05421       -0.00897       -0.00135       2.05287
	               R(1,2)       1.40909       -0.02638       -0.00703       1.40205
	               R(1,7)       0.94581        0.00681       -0.00037       0.94544
	               R(2,3)       1.51653        0.03155        0.00679       1.52332
	               R(2,8)       1.08322        0.01656        0.00161       1.08483
	               R(2,9)       1.08407        0.02717        0.00378       1.08785
	               R(3,4)       1.41616       -0.02785       -0.00528       1.41088
	               R(3,5)       1.52397        0.00704        0.00157       1.52553
	              R(3,10)       1.08096        0.02354        0.00389       1.08484
	              R(4,11)       0.94653        0.00477       -0.00042       0.94611
	               R(5,6)       1.40908       -0.04500       -0.01015       1.39893
	              R(5,12)       1.08387        0.02680        0.00360       1.08747
	              R(5,13)       1.08745        0.02067        0.00259       1.09004
	              R(6,14)       0.94618        0.00283       -0.00076       0.94543
	             B(1,2,3)     108.33220        0.00022        1.09924     109.43144
	             B(1,2,8)     110.91276        0.00002        0.33036     111.24312
	             B(1,2,9)     111.04339       -0.00005        0.10033     111.14372
	             B(2,1,7)     108.52651        0.00021        1.07828     109.60479
	             B(2,3,4)     104.85998        0.00007        0.23671     105.09669
	             B(2,3,5)     114.74676        0.00004        0.14577     114.89253
	            B(2,3,10)     108.12093       -0.00003       -0.04197     108.07896
	             B(3,2,8)     108.26558       -0.00015       -0.91335     107.35222
	             B(3,2,9)     109.82739       -0.00003       -0.05578     109.77162
	            B(3,4,11)     109.06023        0.00020        1.08899     110.14923
	             B(3,5,6)     109.42477       -0.00007        0.01639     109.44115
	            B(3,5,12)     109.52393        0.00001        0.07569     109.59962
	            B(3,5,13)     108.84980       -0.00008       -0.62398     108.22582
	             B(4,3,5)     109.52630       -0.00012       -0.65624     108.87006
	            B(4,3,10)     110.57467        0.00006        0.81541     111.39008
	            B(5,3,10)     108.94440       -0.00001       -0.42150     108.52290
	            B(5,6,14)     108.92706        0.00011        0.61982     109.54688
	            B(6,5,12)     111.10596        0.00007        0.50637     111.61232
	            B(6,5,13)     110.07171        0.00010        0.44850     110.52022
	             B(8,2,9)     108.41729       -0.00001       -0.60739     107.80990
	           B(12,5,13)     107.82138       -0.00004       -0.45844     107.36294
	           D(1,2,3,4)     161.10246        0.00009        7.05316     168.15562
	           D(1,2,3,5)     -78.69398        0.00001        6.48419     -72.20979
	          D(1,2,3,10)      43.10754       -0.00001        6.00729      49.11483
	          D(2,3,4,11)     184.39296        0.00003        8.94811     193.34108
	           D(2,3,5,6)      78.25786       -0.00003       -4.18213      74.07573
	          D(2,3,5,12)     -43.75869       -0.00008       -4.86962     -48.62831
	          D(2,3,5,13)    -161.41581        0.00001       -4.00491    -165.42072
	           D(3,2,1,7)     180.17875        0.00003       -1.85079     178.32797
	          D(3,5,6,14)     181.04646       -0.00001        4.04121     185.08767
	           D(4,3,2,8)      40.74840        0.00003        6.55942      47.30782
	           D(4,3,2,9)     -77.45927        0.00015        7.84123     -69.61804
	           D(4,3,5,6)    -164.15564       -0.00000       -4.25035    -168.40599
	          D(4,3,5,12)      73.82781       -0.00005       -4.93785      68.88996
	          D(4,3,5,13)     -43.82932        0.00003       -4.07313     -47.90245
	           D(5,3,2,8)     160.95197       -0.00005        5.99044     166.94241
	           D(5,3,2,9)      42.74429        0.00007        7.27226      50.01655
	          D(5,3,4,11)      60.77746        0.00001        8.99555      69.77302
	          D(6,5,3,10)     -43.09453       -0.00001       -3.91195     -47.00648
	           D(7,1,2,8)     -61.13095       -0.00001       -2.08716     -63.21811
	           D(7,1,2,9)      59.49270       -0.00004       -2.56596      56.92674
	          D(8,2,3,10)     -77.24651       -0.00006        5.51354     -71.73296
	          D(9,2,3,10)     164.54582        0.00006        6.79536     171.34117
	         D(10,3,4,11)     -59.29198        0.00006        9.43201     -49.85997
	         D(10,3,5,12)    -165.11108       -0.00006       -4.59944    -169.71053
	         D(10,3,5,13)      77.23179        0.00002       -3.73473      73.49706
	         D(12,5,6,14)     -57.89130        0.00000        4.47658     -53.41472
	         D(13,5,6,14)      61.46944        0.00007        4.52354      65.99298
	-------------------------------------------------------------------------------

	                                 ==> Convergence Check <==                                  
    
	Measures of convergence in internal coordinates in au.
    
	Criteria marked as inactive (o), active & met (*), and active & unmet ( ).

	----------------------------------------------------------------------------------------------
	   Step    Total Energy     Delta E     Max Force     RMS Force      Max Disp      RMS Disp   
	----------------------------------------------------------------------------------------------
	  Convergence Criteria     1.00e-06 *    3.00e-04 *             o    1.20e-03 *             o
	----------------------------------------------------------------------------------------------
	     2    -342.80069812   -7.09e-03      5.46e-03      1.57e-03 o    1.65e-01      6.44e-02 o  ~
	----------------------------------------------------------------------------------------------

Next Geometry in Ang 
	Fragment 1 (Ang)

	    O  -0.4326558746   0.3425689734   0.1693972446
	    C   0.9377666455   0.5636966540  -0.0275693736
	    C   1.1574266554   1.1972017999  -1.3953885784
	    O   2.4997480490   1.6316017059  -1.3878687801
	    C   0.9495456580   0.2575741752  -2.5790852135
	    O  -0.4190183012   0.0289878634  -2.7573663017
	    H  -0.5695857717  -0.0741512539   1.0069268924
	    H   1.3359888801   1.2482970946   0.7137829001
	    H   1.4991575315  -0.3654976991   0.0420517997
	    H   0.4718817324   2.0322200699  -1.4936728335
	    H   2.6579266568   2.2139323142  -2.1165640355
	    H   1.4916031937  -0.6695912901  -2.4084222021
	    H   1.3773456753   0.7260606211  -3.4654840914
	    H  -0.5462339813  -0.6133095182  -3.4393508680


    Structure for next step:
    Molecular point group: c1
    Full point group: C1

    Geometry (in Angstrom), charge = 0, multiplicity = 1:

    O           -0.432655874583     0.342568973368     0.169397244561
    C            0.937766645502     0.563696653956    -0.027569373594
    C            1.157426655378     1.197201799879    -1.395388578417
    O            2.499748049008     1.631601705858    -1.387868780089
    C            0.949545658029     0.257574175242    -2.579085213509
    O           -0.419018301166     0.028987863412    -2.757366301682
    H           -0.569585771685    -0.074151253850     1.006926892386
    H            1.335988880095     1.248297094592     0.713782900079
    H            1.499157531517    -0.365497699142     0.042051799691
    H            0.471881732425     2.032220069851    -1.493672833483
    H            2.657926656827     2.213932314152    -2.116564035502
    H            1.491603193674    -0.669591290146    -2.408422202071
    H            1.377345675269     0.726060621063    -3.465484091396
    H           -0.546233981291    -0.613309518236    -3.439350867975


Scratch directory: /mnt/storage/nobackup/nca121/scratch_dir/
gradient() will perform analytic gradient computation.
   => Libint2 <=

    Primary   basis highest AM E, G, H:  5, 4, 3
    Auxiliary basis highest AM E, G, H:  6, 5, 4
    Onebody   basis highest AM E, G, H:  6, 5, 4
    Solid Harmonics ordering:            gaussian

*** tstart() called on sb103.cluster
*** at Fri Sep 15 09:41:35 2023

   => Loading Basis Set <=

    Name: 6-31G*
    Role: ORBITAL
    Keyword: BASIS
    atoms 1, 4, 6 entry O          line   145 file /mnt/nfs/home/nca121/.conda/envs/p4env/share/psi4/basis/6-31gs.gbs 
    atoms 2-3, 5  entry C          line   111 file /mnt/nfs/home/nca121/.conda/envs/p4env/share/psi4/basis/6-31gs.gbs 
    atoms 7-14    entry H          line    44 file /mnt/nfs/home/nca121/.conda/envs/p4env/share/psi4/basis/6-31gs.gbs 


         ---------------------------------------------------------
                                   SCF
               by Justin Turney, Rob Parrish, Andy Simmonett
                          and Daniel G. A. Smith
                              RHF Reference
                        4 Threads,    500 MiB Core
         ---------------------------------------------------------

  ==> Geometry <==

    Molecular point group: c1
    Full point group: C1

    Geometry (in Angstrom), charge = 0, multiplicity = 1:

       Center              X                  Y                   Z               Mass       
    ------------   -----------------  -----------------  -----------------  -----------------
         O           -0.432655874583     0.342568973368     0.169397244561    15.994914619570
         C            0.937766645502     0.563696653956    -0.027569373594    12.000000000000
         C            1.157426655378     1.197201799879    -1.395388578417    12.000000000000
         O            2.499748049008     1.631601705858    -1.387868780089    15.994914619570
         C            0.949545658029     0.257574175242    -2.579085213509    12.000000000000
         O           -0.419018301166     0.028987863412    -2.757366301682    15.994914619570
         H           -0.569585771685    -0.074151253850     1.006926892386     1.007825032230
         H            1.335988880095     1.248297094592     0.713782900079     1.007825032230
         H            1.499157531517    -0.365497699142     0.042051799691     1.007825032230
         H            0.471881732425     2.032220069851    -1.493672833483     1.007825032230
         H            2.657926656827     2.213932314152    -2.116564035502     1.007825032230
         H            1.491603193674    -0.669591290146    -2.408422202071     1.007825032230
         H            1.377345675269     0.726060621063    -3.465484091396     1.007825032230
         H           -0.546233981291    -0.613309518236    -3.439350867975     1.007825032230

  Running in c1 symmetry.

  Rotational constants: A =      0.11556  B =      0.04215  C =      0.03252 [cm^-1]
  Rotational constants: A =   3464.25724  B =   1263.50516  C =    975.05067 [MHz]
  Nuclear repulsion =  264.236208098577094

  Charge       = 0
  Multiplicity = 1
  Electrons    = 50
  Nalpha       = 25
  Nbeta        = 25

  ==> Algorithm <==

  SCF Algorithm Type is DF.
  DIIS enabled.
  MOM disabled.
  Fractional occupation disabled.
  Guess Type is READ.
  Energy threshold   = 1.00e-08
  Density threshold  = 1.00e-08
  Integral threshold = 1.00e-12

  ==> Primary Basis <==

  Basis Set: 6-31G*
    Blend: 6-31G*
    Number of shells: 52
    Number of basis functions: 106
    Number of Cartesian functions: 106
    Spherical Harmonics?: false
    Max angular momentum: 2

   => Loading Basis Set <=

    Name: (6-31G* AUX)
    Role: JKFIT
    Keyword: DF_BASIS_SCF
    atoms 1, 4, 6 entry O          line   221 file /mnt/nfs/home/nca121/.conda/envs/p4env/share/psi4/basis/cc-pvdz-jkfit.gbs 
    atoms 2-3, 5  entry C          line   121 file /mnt/nfs/home/nca121/.conda/envs/p4env/share/psi4/basis/cc-pvdz-jkfit.gbs 
    atoms 7-14    entry H          line    51 file /mnt/nfs/home/nca121/.conda/envs/p4env/share/psi4/basis/cc-pvdz-jkfit.gbs 

   => Loading Basis Set <=

    Name: 6-31G*
    Role: ORBITAL
    Keyword: BASIS
    atoms 1, 4, 6 entry O          line   145 file /mnt/nfs/home/nca121/.conda/envs/p4env/share/psi4/basis/6-31gs.gbs 
    atoms 2-3, 5  entry C          line   111 file /mnt/nfs/home/nca121/.conda/envs/p4env/share/psi4/basis/6-31gs.gbs 
    atoms 7-14    entry H          line    44 file /mnt/nfs/home/nca121/.conda/envs/p4env/share/psi4/basis/6-31gs.gbs 

  Reading orbitals from file /mnt/storage/nobackup/nca121/scratch_dir/out.mol.32636.180.npy, no projection.

  ==> Integral Setup <==

  DFHelper Memory: AOs need 0.063 GiB; user supplied 0.366 GiB. 
  Using in-core AOs.

  ==> MemDFJK: Density-Fitted J/K Matrices <==

    J tasked:                   Yes
    K tasked:                   Yes
    wK tasked:                   No
    OpenMP threads:               4
    Memory [MiB]:               375
    Algorithm:                 Core
    Schwarz Cutoff:           1E-12
    Mask sparsity (%):       1.1214
    Fitting Condition:        1E-10

   => Auxiliary Basis Set <=

  Basis Set: (6-31G* AUX)
    Blend: CC-PVDZ-JKFIT
    Number of shells: 216
    Number of basis functions: 686
    Number of Cartesian functions: 686
    Spherical Harmonics?: false
    Max angular momentum: 3

  Minimum eigenvalue in the overlap matrix is 3.2868019587E-03.
  Reciprocal condition number of the overlap matrix is 4.5678725876E-04.
    Using symmetric orthogonalization.

  ==> Pre-Iterations <==

  SCF Guess: Orbitals guess was supplied from a previous computation.

   -------------------------------------------------------
    Irrep   Nso     Nmo     Nalpha   Nbeta   Ndocc  Nsocc
   -------------------------------------------------------
     A        106     106      25      25      25       0
   -------------------------------------------------------
    Total     106     106      25      25      25       0
   -------------------------------------------------------

  ==> Iterations <==

                           Total Energy        Delta E     RMS |[F,P]|

   @DF-RHF iter   0:  -342.78926164050353   -3.42789e+02   1.52188e-03 
   @DF-RHF iter   1:  -342.80045725829490   -1.11956e-02   2.75610e-04 DIIS/ADIIS
   @DF-RHF iter   2:  -342.80128268036214   -8.25422e-04   1.03524e-04 DIIS/ADIIS
   @DF-RHF iter   3:  -342.80143513604395   -1.52456e-04   3.38074e-05 DIIS
   @DF-RHF iter   4:  -342.80144566716933   -1.05311e-05   1.00795e-05 DIIS
   @DF-RHF iter   5:  -342.80144747136563   -1.80420e-06   3.26090e-06 DIIS
   @DF-RHF iter   6:  -342.80144760536382   -1.33998e-07   1.01777e-06 DIIS
   @DF-RHF iter   7:  -342.80144761799534   -1.26315e-08   2.16092e-07 DIIS
   @DF-RHF iter   8:  -342.80144761861970   -6.24368e-10   5.06923e-08 DIIS
   @DF-RHF iter   9:  -342.80144761864614   -2.64322e-11   2.09140e-08 DIIS
   @DF-RHF iter  10:  -342.80144761864915   -3.01270e-12   4.89237e-09 DIIS
  Energy and wave function converged.


  ==> Post-Iterations <==

    Orbital Energies [Eh]
    ---------------------

    Doubly Occupied:                                                      

       1A    -20.562201     2A    -20.552819     3A    -20.549121  
       4A    -11.274360     5A    -11.270127     6A    -11.265251  
       7A     -1.377391     8A     -1.358273     9A     -1.354205  
      10A     -1.021729    11A     -0.920553    12A     -0.800792  
      13A     -0.734139    14A     -0.687538    15A     -0.675931  
      16A     -0.651711    17A     -0.620974    18A     -0.580913  
      19A     -0.566980    20A     -0.527999    21A     -0.517578  
      22A     -0.472881    23A     -0.446248    24A     -0.436387  
      25A     -0.422626  

    Virtual:                                                              

      26A      0.214744    27A      0.225026    28A      0.243312  
      29A      0.285104    30A      0.306718    31A      0.319777  
      32A      0.337051    33A      0.351395    34A      0.403373  
      35A      0.419633    36A      0.427383    37A      0.485138  
      38A      0.501353    39A      0.741659    40A      0.744674  
      41A      0.813720    42A      0.847676    43A      0.859718  
      44A      0.894092    45A      0.953947    46A      0.971206  
      47A      1.035097    48A      1.063003    49A      1.082911  
      50A      1.101216    51A      1.124082    52A      1.126448  
      53A      1.148155    54A      1.184761    55A      1.195773  
      56A      1.225516    57A      1.254524    58A      1.261528  
      59A      1.278313    60A      1.289086    61A      1.335938  
      62A      1.350255    63A      1.394373    64A      1.470222  
      65A      1.479535    66A      1.588556    67A      1.707344  
      68A      1.736250    69A      1.747021    70A      1.802752  
      71A      1.914535    72A      1.923671    73A      1.948420  
      74A      1.975260    75A      2.032630    76A      2.043595  
      77A      2.075911    78A      2.164338    79A      2.218695  
      80A      2.226657    81A      2.297502    82A      2.382697  
      83A      2.407718    84A      2.439652    85A      2.445545  
      86A      2.489320    87A      2.558731    88A      2.672889  
      89A      2.708323    90A      2.762347    91A      2.794158  
      92A      2.851731    93A      2.885458    94A      2.896770  
      95A      2.933811    96A      3.036728    97A      3.058992  
      98A      3.234252    99A      3.277086   100A      3.331189  
     101A      4.064017   102A      4.302511   103A      4.316134  
     104A      4.622814   105A      4.822721   106A      4.989842  

    Final Occupation by Irrep:
              A 
    DOCC [    25 ]
    NA   [    25 ]
    NB   [    25 ]

  @DF-RHF Final Energy:  -342.80144761864915

   => Energetics <=

    Nuclear Repulsion Energy =            264.2362080985770945
    One-Electron Energy =                -994.7778562630580836
    Two-Electron Energy =                 387.7402005458318399
    Total Energy =                       -342.8014476186491493

Computation Completed


Properties will be evaluated at   0.000000,   0.000000,   0.000000 [a0]

Properties computed using the SCF density matrix


 Multipole Moments:

 ------------------------------------------------------------------------------------
     Multipole            Electronic (a.u.)      Nuclear  (a.u.)        Total (a.u.)
 ------------------------------------------------------------------------------------

 L = 1.  Multiply by 2.5417464519 to convert [e a0] to [Debye]
 Dipole X            :        -73.5831898           74.0226674            0.4394776
 Dipole Y            :        -61.9758223           61.6694442           -0.3063782
 Dipole Z            :        126.2085529         -126.5732779           -0.3647250
 Magnitude           :                                                    0.6480991

 ------------------------------------------------------------------------------------

*** tstop() called on sb103.cluster at Fri Sep 15 09:41:38 2023
Module time:
	user time   =       2.15 seconds =       0.04 minutes
	system time =       0.96 seconds =       0.02 minutes
	total time  =          3 seconds =       0.05 minutes
Total time:
	user time   =      11.16 seconds =       0.19 minutes
	system time =       5.41 seconds =       0.09 minutes
	total time  =         17 seconds =       0.28 minutes

*** tstart() called on sb103.cluster
*** at Fri Sep 15 09:41:38 2023


         ------------------------------------------------------------
                                   SCF GRAD                          
                          Rob Parrish, Justin Turney,                
                       Andy Simmonett, and Alex Sokolov              
         ------------------------------------------------------------

  ==> Geometry <==

    Molecular point group: c1
    Full point group: C1

    Geometry (in Angstrom), charge = 0, multiplicity = 1:

       Center              X                  Y                   Z               Mass       
    ------------   -----------------  -----------------  -----------------  -----------------
         O           -0.432655874583     0.342568973368     0.169397244561    15.994914619570
         C            0.937766645502     0.563696653956    -0.027569373594    12.000000000000
         C            1.157426655378     1.197201799879    -1.395388578417    12.000000000000
         O            2.499748049008     1.631601705858    -1.387868780089    15.994914619570
         C            0.949545658029     0.257574175242    -2.579085213509    12.000000000000
         O           -0.419018301166     0.028987863412    -2.757366301682    15.994914619570
         H           -0.569585771685    -0.074151253850     1.006926892386     1.007825032230
         H            1.335988880095     1.248297094592     0.713782900079     1.007825032230
         H            1.499157531517    -0.365497699142     0.042051799691     1.007825032230
         H            0.471881732425     2.032220069851    -1.493672833483     1.007825032230
         H            2.657926656827     2.213932314152    -2.116564035502     1.007825032230
         H            1.491603193674    -0.669591290146    -2.408422202071     1.007825032230
         H            1.377345675269     0.726060621063    -3.465484091396     1.007825032230
         H           -0.546233981291    -0.613309518236    -3.439350867975     1.007825032230

  Nuclear repulsion =  264.236208098577094

  ==> Basis Set <==

  Basis Set: 6-31G*
    Blend: 6-31G*
    Number of shells: 52
    Number of basis functions: 106
    Number of Cartesian functions: 106
    Spherical Harmonics?: false
    Max angular momentum: 2

  ==> DFJKGrad: Density-Fitted SCF Gradients <==

    Gradient:                    1
    J tasked:                  Yes
    K tasked:                  Yes
    wK tasked:                  No
    OpenMP threads:              4
    Integrals threads:           4
    Memory [MiB]:              375
    Schwarz Cutoff:          1E-12
    Fitting Condition:       1E-10

   => Auxiliary Basis Set <=

  Basis Set: (6-31G* AUX)
    Blend: CC-PVDZ-JKFIT
    Number of shells: 216
    Number of basis functions: 686
    Number of Cartesian functions: 686
    Spherical Harmonics?: false
    Max angular momentum: 3


  -Total Gradient:
     Atom            X                  Y                   Z
    ------   -----------------  -----------------  -----------------
       1       -0.002041562269    -0.001285758590     0.001076258195
       2        0.002894270899     0.000637299588     0.000168792685
       3       -0.001422111495     0.001764596115    -0.000000890418
       4        0.000847719068     0.001128506628    -0.001362780986
       5        0.002921306405     0.000054461430    -0.000565815654
       6       -0.001431272775    -0.000647327442     0.000764658058
       7       -0.000615881227     0.000214467010    -0.000852093612
       8       -0.000168157371    -0.000626323619    -0.000793250805
       9       -0.000911397821    -0.000224426580     0.000751658694
      10        0.000086958748    -0.000938437333     0.000024318317
      11        0.000562034476    -0.000315504092     0.000584040461
      12       -0.000606464723    -0.000083902763    -0.000531578154
      13       -0.000402323330    -0.000317447641     0.000112526055
      14        0.000286881415     0.000639797290     0.000624157162


*** tstop() called on sb103.cluster at Fri Sep 15 09:41:40 2023
Module time:
	user time   =       1.52 seconds =       0.03 minutes
	system time =       0.43 seconds =       0.01 minutes
	total time  =          2 seconds =       0.03 minutes
Total time:
	user time   =      12.68 seconds =       0.21 minutes
	system time =       5.84 seconds =       0.10 minutes
	total time  =         19 seconds =       0.32 minutes

    			-----------------------------------------

    			 OPTKING 3.0: for geometry optimizations 

    			     By R.A. King, Bethel University     

    			        with contributions from          

    			    A.V. Copan, J. Cayton, A. Heide      

    			-----------------------------------------

    
	                            ===> Fragment 1 <== 

	 Z (Atomic Numbers)          Masses                          Geom                  
	       8.000000            15.994915         -0.81760111  0.64736154  0.32011440   
	       6.000000            12.000000          1.77212213  1.06523229 -0.05209857   
	       6.000000            12.000000          2.18721939  2.26238352 -2.63690225   
	       8.000000            15.994915          4.72383920  3.08328037 -2.62269189   
	       6.000000            12.000000          1.79438124  0.48674465 -4.87376471   
	       8.000000            15.994915         -0.79182983  0.05477912 -5.21066714   
	       1.000000             1.007825         -1.07636111 -0.14012556  1.90281605   
	       1.000000             1.007825          2.52465309  2.35893963  1.34885419   
	       1.000000             1.007825          2.83299715 -0.69069055  0.07946638   
	       1.000000             1.007825          0.89172724  3.84033936 -2.82263258   
	       1.000000             1.007825          5.02275344  4.18372573 -3.99972635   
	       1.000000             1.007825          2.81872152 -1.26534415 -4.55125836   
	       1.000000             1.007825          2.60280611  1.37205572 -6.54881582   
	       1.000000             1.007825         -1.03223263 -1.15898702 -6.49943119   

	 - Coordinate -           - BOHR/RAD -       - ANG/DEG -
	 H(1,8)           =         3.893388           2.060292
	 H(1,9)           =         3.895531           2.061426
	 H(4,10)          =         3.911291           2.069766
	 H(6,12)          =         3.900465           2.064037
	 H(6,13)          =         3.879357           2.052867
[...]
         O           -0.000153209717    -0.708008957619    -0.474589207953    15.994914619570
         C            1.332722709425    -0.456105662015    -0.847439607678    12.000000000000
         C            1.387703123151     1.007760655058    -1.207611606149    12.000000000000
         O            2.731182223919     1.304958398059    -1.588703853706    15.994914619570
         C            0.394612784492     1.393424092267    -2.278583127345    12.000000000000
         O           -0.860158908828     1.667370509532    -1.752585028295    15.994914619570
         H           -0.148406531375    -1.615951679326    -0.318128945997     1.007825032230
         H            2.019914539023    -0.682528185944    -0.024142974573     1.007825032230
         H            1.626826173690    -1.066982609371    -1.697735285979     1.007825032230
         H            1.132449375157     1.580084708773    -0.301269941617     1.007825032230
         H            2.812333311505     2.250107431502    -1.646116786405     1.007825032230
         H            0.346044669682     0.608228427235    -3.045058066695     1.007825032230
         H            0.725299801964     2.294701223837    -2.787159700781     1.007825032230
         H           -1.089473313107     0.942533157968    -1.169489307751     1.007825032230

  Running in c1 symmetry.

  Rotational constants: A =      0.10653  B =      0.04115  C =      0.03325 [cm^-1]
  Rotational constants: A =   3193.70766  B =   1233.70056  C =    996.95704 [MHz]
  Nuclear repulsion =  267.175977180141217

  Charge       = 0
  Multiplicity = 1
  Electrons    = 50
  Nalpha       = 25
  Nbeta        = 25

  ==> Algorithm <==

  SCF Algorithm Type is DF.
  DIIS enabled.
  MOM disabled.
  Fractional occupation disabled.
  Guess Type is READ.
  Energy threshold   = 1.00e-08
  Density threshold  = 1.00e-08
  Integral threshold = 1.00e-12

  ==> Primary Basis <==

  Basis Set: 6-31G*
    Blend: 6-31G*
    Number of shells: 52
    Number of basis functions: 106
    Number of Cartesian functions: 106
    Spherical Harmonics?: false
    Max angular momentum: 2

   => Loading Basis Set <=

    Name: (6-31G* AUX)
    Role: JKFIT
    Keyword: DF_BASIS_SCF
    atoms 1, 4, 6 entry O          line   221 file /mnt/nfs/home/nca121/.conda/envs/p4env/share/psi4/basis/cc-pvdz-jkfit.gbs 
    atoms 2-3, 5  entry C          line   121 file /mnt/nfs/home/nca121/.conda/envs/p4env/share/psi4/basis/cc-pvdz-jkfit.gbs 
    atoms 7-14    entry H          line    51 file /mnt/nfs/home/nca121/.conda/envs/p4env/share/psi4/basis/cc-pvdz-jkfit.gbs 

   => Loading Basis Set <=

    Name: 6-31G*
    Role: ORBITAL
    Keyword: BASIS
    atoms 1, 4, 6 entry O          line   145 file /mnt/nfs/home/nca121/.conda/envs/p4env/share/psi4/basis/6-31gs.gbs 
    atoms 2-3, 5  entry C          line   111 file /mnt/nfs/home/nca121/.conda/envs/p4env/share/psi4/basis/6-31gs.gbs 
    atoms 7-14    entry H          line    44 file /mnt/nfs/home/nca121/.conda/envs/p4env/share/psi4/basis/6-31gs.gbs 

  Reading orbitals from file /mnt/storage/nobackup/nca121/scratch_dir/out.mol.32636.180.npy, no projection.

  ==> Integral Setup <==

  DFHelper Memory: AOs need 0.063 GiB; user supplied 0.366 GiB. 
  Using in-core AOs.

  ==> MemDFJK: Density-Fitted J/K Matrices <==

    J tasked:                   Yes
    K tasked:                   Yes
    wK tasked:                   No
    OpenMP threads:               4
    Memory [MiB]:               375
    Algorithm:                 Core
    Schwarz Cutoff:           1E-12
    Mask sparsity (%):       1.0680
    Fitting Condition:        1E-10

   => Auxiliary Basis Set <=

  Basis Set: (6-31G* AUX)
    Blend: CC-PVDZ-JKFIT
    Number of shells: 216
    Number of basis functions: 686
    Number of Cartesian functions: 686
    Spherical Harmonics?: false
    Max angular momentum: 3

  Minimum eigenvalue in the overlap matrix is 3.2101639560E-03.
  Reciprocal condition number of the overlap matrix is 4.4055109363E-04.
    Using symmetric orthogonalization.

  ==> Pre-Iterations <==

  SCF Guess: Orbitals guess was supplied from a previous computation.

   -------------------------------------------------------
    Irrep   Nso     Nmo     Nalpha   Nbeta   Ndocc  Nsocc
   -------------------------------------------------------
     A        106     106      25      25      25       0
   -------------------------------------------------------
    Total     106     106      25      25      25       0
   -------------------------------------------------------

  ==> Iterations <==

                           Total Energy        Delta E     RMS |[F,P]|

   @DF-RHF iter   0:  -342.80978600897680   -3.42810e+02   1.21715e-03 
   @DF-RHF iter   1:  -342.80843708746602    1.34892e-03   1.76527e-04 DIIS/ADIIS
   @DF-RHF iter   2:  -342.80861078502477   -1.73698e-04   7.19746e-05 DIIS
   @DF-RHF iter   3:  -342.80863487068768   -2.40857e-05   2.03717e-05 DIIS
   @DF-RHF iter   4:  -342.80863809963131   -3.22894e-06   6.74066e-06 DIIS
   @DF-RHF iter   5:  -342.80863856254570   -4.62914e-07   1.78288e-06 DIIS
   @DF-RHF iter   6:  -342.80863860277503   -4.02293e-08   6.10670e-07 DIIS
   @DF-RHF iter   7:  -342.80863860816640   -5.39137e-09   1.27813e-07 DIIS
   @DF-RHF iter   8:  -342.80863860840191   -2.35502e-10   3.83741e-08 DIIS
   @DF-RHF iter   9:  -342.80863860841743   -1.55183e-11   1.51422e-08 DIIS
   @DF-RHF iter  10:  -342.80863860841976   -2.33058e-12   3.42938e-09 DIIS
  Energy and wave function converged.


  ==> Post-Iterations <==

    Orbital Energies [Eh]
    ---------------------

    Doubly Occupied:                                                      

       1A    -20.581508     2A    -20.566837     3A    -20.543341  
       4A    -11.284740     5A    -11.280150     6A    -11.264941  
       7A     -1.395612     8A     -1.367711     9A     -1.352548  
      10A     -1.034035    11A     -0.924843    12A     -0.814806  
      13A     -0.745283    14A     -0.710644    15A     -0.677061  
      16A     -0.634394    17A     -0.624874    18A     -0.587654  
      19A     -0.573688    20A     -0.546506    21A     -0.540453  
      22A     -0.472622    23A     -0.466725    24A     -0.451086  
      25A     -0.416805  

    Virtual:                                                              

      26A      0.203254    27A      0.223979    28A      0.277123  
      29A      0.283150    30A      0.292956    31A      0.308044  
      32A      0.337995    33A      0.345903    34A      0.395864  
      35A      0.421642    36A      0.431641    37A      0.486910  
      38A      0.497731    39A      0.738655    40A      0.748432  
      41A      0.802240    42A      0.830765    43A      0.860525  
      44A      0.893613    45A      0.929622    46A      0.984184  
      47A      1.032564    48A      1.051028    49A      1.079859  
      50A      1.095449    51A      1.107197    52A      1.131739  
      53A      1.148739    54A      1.170325    55A      1.179130  
      56A      1.203405    57A      1.228786    58A      1.248556  
      59A      1.273484    60A      1.321632    61A      1.343313  
      62A      1.360661    63A      1.388991    64A      1.487342  
      65A      1.557410    66A      1.576080    67A      1.608955  
      68A      1.727091    69A      1.738864    70A      1.785275  
      71A      1.891288    72A      1.907633    73A      1.926918  
      74A      1.983085    75A      1.996164    76A      2.086081  
      77A      2.103730    78A      2.191178    79A      2.208809  
      80A      2.238031    81A      2.299397    82A      2.361683  
      83A      2.395931    84A      2.430063    85A      2.470396  
      86A      2.501774    87A      2.536456    88A      2.670055  
      89A      2.686484    90A      2.756502    91A      2.779713  
      92A      2.835945    93A      2.872302    94A      2.900564  
      95A      2.933762    96A      3.004285    97A      3.069532  
      98A      3.236062    99A      3.266667   100A      3.321834  
     101A      4.124134   102A      4.248741   103A      4.360097  
     104A      4.638586   105A      4.795644   106A      4.992760  

    Final Occupation by Irrep:
              A 
    DOCC [    25 ]
    NA   [    25 ]
    NB   [    25 ]

  @DF-RHF Final Energy:  -342.80863860841976

   => Energetics <=

    Nuclear Repulsion Energy =            267.1759771801412171
    One-Electron Energy =               -1000.2514982831770567
    Two-Electron Energy =                 390.2668824946160839
    Total Energy =                       -342.8086386084197557

Computation Completed


Properties will be evaluated at   0.000000,   0.000000,   0.000000 [a0]

Properties computed using the SCF density matrix


 Multipole Moments:

 ------------------------------------------------------------------------------------
     Multipole            Electronic (a.u.)      Nuclear  (a.u.)        Total (a.u.)
 ------------------------------------------------------------------------------------

 L = 1.  Multiply by 2.5417464519 to convert [e a0] to [Debye]
 Dipole X            :        -77.2864640           77.6340699            0.3476059
 Dipole Y            :        -65.1482882           64.4306404           -0.7176478
 Dipole Z            :        127.9133165         -127.5903996            0.3229169
 Magnitude           :                                                    0.8603043

 ------------------------------------------------------------------------------------

*** tstop() called on sb103.cluster at Fri Sep 15 09:46:03 2023
Module time:
	user time   =       1.95 seconds =       0.03 minutes
	system time =       0.91 seconds =       0.02 minutes
	total time  =          3 seconds =       0.05 minutes
Total time:
	user time   =     178.77 seconds =       2.98 minutes
	system time =      80.67 seconds =       1.34 minutes
	total time  =        282 seconds =       4.70 minutes

*** tstart() called on sb103.cluster
*** at Fri Sep 15 09:46:03 2023


         ------------------------------------------------------------
                                   SCF GRAD                          
                          Rob Parrish, Justin Turney,                
                       Andy Simmonett, and Alex Sokolov              
         ------------------------------------------------------------

  ==> Geometry <==

    Molecular point group: c1
    Full point group: C1

    Geometry (in Angstrom), charge = 0, multiplicity = 1:

       Center              X                  Y                   Z               Mass       
    ------------   -----------------  -----------------  -----------------  -----------------
         O           -0.000153209717    -0.708008957619    -0.474589207953    15.994914619570
         C            1.332722709425    -0.456105662015    -0.847439607678    12.000000000000
         C            1.387703123151     1.007760655058    -1.207611606149    12.000000000000
         O            2.731182223919     1.304958398059    -1.588703853706    15.994914619570
         C            0.394612784492     1.393424092267    -2.278583127345    12.000000000000
         O           -0.860158908828     1.667370509532    -1.752585028295    15.994914619570
         H           -0.148406531375    -1.615951679326    -0.318128945997     1.007825032230
         H            2.019914539023    -0.682528185944    -0.024142974573     1.007825032230
         H            1.626826173690    -1.066982609371    -1.697735285979     1.007825032230
         H            1.132449375157     1.580084708773    -0.301269941617     1.007825032230
         H            2.812333311505     2.250107431502    -1.646116786405     1.007825032230
         H            0.346044669682     0.608228427235    -3.045058066695     1.007825032230
         H            0.725299801964     2.294701223837    -2.787159700781     1.007825032230
         H           -1.089473313107     0.942533157968    -1.169489307751     1.007825032230

  Nuclear repulsion =  267.175977180141217

  ==> Basis Set <==

  Basis Set: 6-31G*
    Blend: 6-31G*
    Number of shells: 52
    Number of basis functions: 106
    Number of Cartesian functions: 106
    Spherical Harmonics?: false
    Max angular momentum: 2

  ==> DFJKGrad: Density-Fitted SCF Gradients <==

    Gradient:                    1
    J tasked:                  Yes
    K tasked:                  Yes
    wK tasked:                  No
    OpenMP threads:              4
    Integrals threads:           4
    Memory [MiB]:              375
    Schwarz Cutoff:          1E-12
    Fitting Condition:       1E-10

   => Auxiliary Basis Set <=

  Basis Set: (6-31G* AUX)
    Blend: CC-PVDZ-JKFIT
    Number of shells: 216
    Number of basis functions: 686
    Number of Cartesian functions: 686
    Spherical Harmonics?: false
    Max angular momentum: 3


  -Total Gradient:
     Atom            X                  Y                   Z
    ------   -----------------  -----------------  -----------------
       1        0.000733517739    -0.013632332706     0.001642939580
       2       -0.006391788882     0.008177878050    -0.005277819929
       3       -0.021785589167    -0.016743900219    -0.016457657113
       4        0.015657298508     0.003961341266    -0.001738023108
       5        0.001918762767     0.001964285673     0.018460477514
       6        0.007672948905     0.007367224432    -0.009698293557
       7        0.000664727367     0.015768487664    -0.002381161228
       8        0.004376282985    -0.003791829588     0.005317999393
       9        0.001013374804    -0.001402992680     0.000681145741
      10       -0.001996833849     0.004374636358     0.008122956448
      11       -0.001703602888     0.004015151716     0.000265608209
      12       -0.000257911437    -0.003881391059    -0.003929791143
      13       -0.000549645753     0.000622677667    -0.002616631616
      14        0.000648458901    -0.006799236574     0.007608250809


*** tstop() called on sb103.cluster at Fri Sep 15 09:46:05 2023
Module time:
	user time   =       1.47 seconds =       0.02 minutes
	system time =       0.51 seconds =       0.01 minutes
	total time  =          2 seconds =       0.03 minutes
Total time:
	user time   =     180.24 seconds =       3.00 minutes
	system time =      81.18 seconds =       1.35 minutes
	total time  =        284 seconds =       4.73 minutes

    			-----------------------------------------

    			 OPTKING 3.0: for geometry optimizations 

    			     By R.A. King, Bethel University     

    			        with contributions from          

    			    A.V. Copan, J. Cayton, A. Heide      

    			-----------------------------------------

    
	                            ===> Fragment 1 <== 

	 Z (Atomic Numbers)          Masses                          Geom                  
	       8.000000            15.994915         -0.00028952 -1.33794302 -0.89684363   
	       6.000000            12.000000          2.51848092 -0.86191479 -1.60142877   
	       6.000000            12.000000          2.62237885  1.90439164 -2.28205520   
	       8.000000            15.994915          5.16118640  2.46601398 -3.00221518   
	       6.000000            12.000000          0.74571009  2.63318991 -4.30589806   
	       8.000000            15.994915         -1.62546476  3.15087361 -3.31190572   
	       1.000000             1.007825         -0.28044770 -3.05370611 -0.60117658   
	       1.000000             1.007825          3.81708528 -1.28979134 -0.04562361   
	       1.000000             1.007825          3.07425592 -2.01630491 -3.20825472   
	       1.000000             1.007825          2.14001917  2.98592735 -0.56931768   
	       1.000000             1.007825          5.31453973  4.25208680 -3.11070990   
	       1.000000             1.007825          0.65392965  1.14938515 -5.75432578   
	       1.000000             1.007825          1.37061798  4.33635685 -5.26696850   
	       1.000000             1.007825         -2.05880618  1.78112953 -2.21001450   

	 - Coordinate -           - BOHR/RAD -       - ANG/DEG -
	 X(1)             =        -0.000290          -0.000153
	 Y(1)             =        -1.337943          -0.708009
	 Z(1)             =        -0.896844          -0.474589
	 X(2)             =         2.518481           1.332723
	 Y(2)             =        -0.861915          -0.456106
	 Z(2)             =        -1.601429          -0.847440
	 X(3)             =         2.622379           1.387703
	 Y(3)             =         1.904392           1.007761
	 Z(3)             =        -2.282055          -1.207612
	 X(4)             =         5.161186           2.731182
	 Y(4)             =         2.466014           1.304958
	 Z(4)             =        -3.002215          -1.588704
	 X(5)             =         0.745710           0.394613
	 Y(5)             =         2.633190           1.393424
	 Z(5)             =        -4.305898          -2.278583
	 X(6)             =        -1.625465          -0.860159
	 Y(6)             =         3.150874           1.667371
	 Z(6)             =        -3.311906          -1.752585
	 X(7)             =        -0.280448          -0.148407
	 Y(7)             =        -3.053706          -1.615952
	 Z(7)             =        -0.601177          -0.318129
	 X(8)             =         3.817085           2.019915
	 Y(8)             =        -1.289791          -0.682528
	 Z(8)             =        -0.045624          -0.024143
	 X(9)             =         3.074256           1.626826
	 Y(9)             =        -2.016305          -1.066983
	 Z(9)             =        -3.208255          -1.697735
	 X(10)            =         2.140019           1.132449
	 Y(10)            =         2.985927           1.580085
	 Z(10)            =        -0.569318          -0.301270
	 X(11)            =         5.314540           2.812333
	 Y(11)            =         4.252087           2.250107
	 Z(11)            =        -3.110710          -1.646117
	 X(12)            =         0.653930           0.346045
	 Y(12)            =         1.149385           0.608228
	 Z(12)            =        -5.754326          -3.045058
	 X(13)            =         1.370618           0.725300
	 Y(13)            =         4.336357           2.294701
	 Z(13)            =        -5.266969          -2.787160
	 X(14)            =        -2.058806          -1.089473
	 Y(14)            =         1.781130           0.942533
	 Z(14)            =        -2.210014          -1.169489

Traceback (most recent call last):
  File "/mnt/nfs/home/nca121/.conda/envs/p4env/bin/psi4", line 372, in <module>
    exec(content)
  File "<string>", line 40, in <module>
  File "/mnt/nfs/home/nca121/.conda/envs/p4env/lib/python3.11/site-packages/psi4/driver/driver.py", line 1272, in optimize
    opt_object.take_step()
  File "/mnt/nfs/home/nca121/.conda/envs/p4env/lib/python3.11/site-packages/optking/opt_helper.py", line 176, in take_step
    self.opt_manager.alg_error_handler(e)
  File "/mnt/nfs/home/nca121/.conda/envs/p4env/lib/python3.11/site-packages/optking/optimize.py", line 372, in alg_error_handler
    raise OptError("Maximum dynamic_level reached.")

optking.exceptions.OptError: Maximum dynamic_level reached.


Printing out the relevant lines from the Psithon --> Python processed input file:
      H -0.443421751 -0.582687497 -3.540498734
    ""","mol")
    core.IO.set_default_namespace("mol")
    core.set_global_option("BASIS", "6-31G*")
    core.set_global_option("DYNAMIC_LEVEL", 3)
--> optimize('scf')
    E,wfn = prop('hf', properties = ['GRID_ESP', 'GRID_FIELD'], return_wfn=True)

!---------------------------------!
!                                 !
!  Maximum dynamic_level reached. !
!                                 !
!---------------------------------!

    Psi4 stopped on: Friday, 15 September 2023 09:46AM
    Psi4 wall time for execution: 0:04:46.75

*** Psi4 encountered an error. Buy a developer more coffee!
*** Resources and help at github.com/psi4/psi4.
