
    -----------------------------------------------------------------------
          Psi4: An Open-Source Ab Initio Electronic Structure Package
                               Psi4 1.8.1 release

                         Git: Rev {} zzzzzzz 


    D. G. A. Smith, L. A. Burns, A. C. Simmonett, R. M. Parrish,
    M. C. Schieber, R. Galvelis, P. Kraus, H. Kruse, R. Di Remigio,
    A. Alenaizan, A. M. James, S. Lehtola, J. P. Misiewicz, M. Scheurer,
    R. A. Shaw, J. B. Schriber, Y. Xie, Z. L. Glick, D. A. Sirianni,
    J. S. O'Brien, J. M. Waldrop, A. Kumar, E. G. Hohenstein,
    B. P. Pritchard, B. R. Brooks, H. F. Schaefer III, A. Yu. Sokolov,
    K. Patkowski, A. E. DePrince III, U. Bozkaya, R. A. King,
    F. A. Evangelista, J. M. Turney, T. D. Crawford, C. D. Sherrill,
    J. Chem. Phys. 152(18) 184108 (2020). https://doi.org/10.1063/5.0006002

                            Additional Code Authors
    E. T. Seidl, C. L. Janssen, E. F. Valeev, M. L. Leininger,
    J. F. Gonthier, R. M. Richard, H. R. McAlexander, M. Saitow, X. Wang,
    P. Verma, M. H. Lechner, A. Jiang, S. Behnle, A. G. Heide,
    M. F. Herbst, and D. L. Poole

             Previous Authors, Complete List of Code Contributors,
                       and Citations for Specific Modules
    https://github.com/psi4/psi4/blob/master/codemeta.json
    https://github.com/psi4/psi4/graphs/contributors
    http://psicode.org/psi4manual/master/introduction.html#citing-psifour

    -----------------------------------------------------------------------


    Psi4 started on: Tuesday, 24 October 2023 04:46PM

    Process ID: 19512
    Host:       sb001.cluster
    PSIDATADIR: /mnt/nfs/home/nca121/.conda/envs/p4env/share/psi4
    Memory:     500.0 MiB
    Threads:    4
    
  ==> Input File <==

--------------------------------------------------------------------------
molecule mol {

  noreorient

  nocom

  0 1

  O  0.662290573  1.518947363  0.958147287

  C  0.952345967  0.538462937 -0.032555223

  C  1.143980265  1.233094573 -1.374383688

  O  2.467077732  1.773290634 -1.406449676

  C  0.985560060  0.257294655 -2.534839153

  O  1.171093345  0.941158116 -3.769816399

  H  0.545439780  1.047703981  1.800753474

  H  1.860896349  0.009473858  0.273769885

  H  0.114350498 -0.164677382 -0.068918392

  H  0.455191284  2.079832554 -1.471976757

  H  2.562606573  2.207801580 -2.266771555

  H -0.009874296 -0.197478950 -2.545755625

  H  1.736638784 -0.537530839 -2.487229347

  H  1.060880065  0.280891538 -4.472022533

}



set {

  basis 6-31G*

}



optimize('scf')



E,wfn = prop('hf', properties = ['GRID_ESP', 'GRID_FIELD',"MULLIKEN_CHARGES", "LOWDIN_CHARGES", "DIPOLE", "QUADRUPOLE", "MBIS_CHARGES"], return_wfn=True)
wfn.to_file('wf')--------------------------------------------------------------------------

Scratch directory: /mnt/storage/nobackup/nca121/scratch_dir/
gradient() will perform analytic gradient computation.
   => Libint2 <=

    Primary   basis highest AM E, G, H:  5, 4, 3
    Auxiliary basis highest AM E, G, H:  6, 5, 4
    Onebody   basis highest AM E, G, H:  6, 5, 4
    Solid Harmonics ordering:            gaussian

*** tstart() called on sb001.cluster
*** at Tue Oct 24 16:46:32 2023

   => Loading Basis Set <=

    Name: 6-31G*
    Role: ORBITAL
    Keyword: BASIS
    atoms 1, 4, 6 entry O          line   145 file /mnt/nfs/home/nca121/.conda/envs/p4env/share/psi4/basis/6-31gs.gbs 
    atoms 2-3, 5  entry C          line   111 file /mnt/nfs/home/nca121/.conda/envs/p4env/share/psi4/basis/6-31gs.gbs 
    atoms 7-14    entry H          line    44 file /mnt/nfs/home/nca121/.conda/envs/p4env/share/psi4/basis/6-31gs.gbs 


         ---------------------------------------------------------
                                   SCF
               by Justin Turney, Rob Parrish, Andy Simmonett
                          and Daniel G. A. Smith
                              RHF Reference
                        4 Threads,    500 MiB Core
         ---------------------------------------------------------

  ==> Geometry <==

    Molecular point group: c1
    Full point group: C1

    Geometry (in Angstrom), charge = 0, multiplicity = 1:

       Center              X                  Y                   Z               Mass       
    ------------   -----------------  -----------------  -----------------  -----------------
         O            0.662290573000     1.518947363000     0.958147287000    15.994914619570
         C            0.952345967000     0.538462937000    -0.032555223000    12.000000000000
         C            1.143980265000     1.233094573000    -1.374383688000    12.000000000000
         O            2.467077732000     1.773290634000    -1.406449676000    15.994914619570
         C            0.985560060000     0.257294655000    -2.534839153000    12.000000000000
         O            1.171093345000     0.941158116000    -3.769816399000    15.994914619570
         H            0.545439780000     1.047703981000     1.800753474000     1.007825032230
         H            1.860896349000     0.009473858000     0.273769885000     1.007825032230
         H            0.114350498000    -0.164677382000    -0.068918392000     1.007825032230
         H            0.455191284000     2.079832554000    -1.471976757000     1.007825032230
         H            2.562606573000     2.207801580000    -2.266771555000     1.007825032230
         H           -0.009874296000    -0.197478950000    -2.545755625000     1.007825032230
         H            1.736638784000    -0.537530839000    -2.487229347000     1.007825032230
         H            1.060880065000     0.280891538000    -4.472022533000     1.007825032230

  Running in c1 symmetry.

  Rotational constants: A =      0.10628  B =      0.02874  C =      0.02351 [cm^-1]
  Rotational constants: A =   3186.31645  B =    861.49521  C =    704.87190 [MHz]
  Nuclear repulsion =  259.002872609047586

  Charge       = 0
  Multiplicity = 1
  Electrons    = 50
  Nalpha       = 25
  Nbeta        = 25

  ==> Algorithm <==

  SCF Algorithm Type is DF.
  DIIS enabled.
  MOM disabled.
  Fractional occupation disabled.
  Guess Type is SAD.
  Energy threshold   = 1.00e-08
  Density threshold  = 1.00e-08
  Integral threshold = 1.00e-12

  ==> Primary Basis <==

  Basis Set: 6-31G*
    Blend: 6-31G*
    Number of shells: 52
    Number of basis functions: 106
    Number of Cartesian functions: 106
    Spherical Harmonics?: false
    Max angular momentum: 2

   => Loading Basis Set <=

    Name: (6-31G* AUX)
    Role: JKFIT
    Keyword: DF_BASIS_SCF
    atoms 1, 4, 6 entry O          line   221 file /mnt/nfs/home/nca121/.conda/envs/p4env/share/psi4/basis/cc-pvdz-jkfit.gbs 
    atoms 2-3, 5  entry C          line   121 file /mnt/nfs/home/nca121/.conda/envs/p4env/share/psi4/basis/cc-pvdz-jkfit.gbs 
    atoms 7-14    entry H          line    51 file /mnt/nfs/home/nca121/.conda/envs/p4env/share/psi4/basis/cc-pvdz-jkfit.gbs 

  ==> Integral Setup <==

  DFHelper Memory: AOs need 0.062 GiB; user supplied 0.366 GiB. 
  Using in-core AOs.

  ==> MemDFJK: Density-Fitted J/K Matrices <==

    J tasked:                   Yes
    K tasked:                   Yes
    wK tasked:                   No
    OpenMP threads:               4
    Memory [MiB]:               375
    Algorithm:                 Core
    Schwarz Cutoff:           1E-12
    Mask sparsity (%):       3.4354
    Fitting Condition:        1E-10

   => Auxiliary Basis Set <=

  Basis Set: (6-31G* AUX)
    Blend: CC-PVDZ-JKFIT
    Number of shells: 216
    Number of basis functions: 686
    Number of Cartesian functions: 686
    Spherical Harmonics?: false
    Max angular momentum: 3

  Minimum eigenvalue in the overlap matrix is 3.1122641247E-03.
  Reciprocal condition number of the overlap matrix is 4.3671973900E-04.
    Using symmetric orthogonalization.

  ==> Pre-Iterations <==

  SCF Guess: Superposition of Atomic Densities via on-the-fly atomic UHF (no occupation information).

   -------------------------
    Irrep   Nso     Nmo    
   -------------------------
     A        106     106 
   -------------------------
    Total     106     106
   -------------------------

  ==> Iterations <==

                           Total Energy        Delta E     RMS |[F,P]|

   @DF-RHF iter SAD:  -341.67023016248731   -3.41670e+02   0.00000e+00 
   @DF-RHF iter   1:  -342.62182115139274   -9.51591e-01   5.70019e-03 DIIS/ADIIS
   @DF-RHF iter   2:  -342.75941455383111   -1.37593e-01   3.19395e-03 DIIS/ADIIS
   @DF-RHF iter   3:  -342.79898619169649   -3.95716e-02   5.13393e-04 DIIS/ADIIS
   @DF-RHF iter   4:  -342.80093334716128   -1.94716e-03   1.20275e-04 DIIS/ADIIS
   @DF-RHF iter   5:  -342.80104056874978   -1.07222e-04   3.18865e-05 DIIS
   @DF-RHF iter   6:  -342.80104889488433   -8.32613e-06   7.84212e-06 DIIS
   @DF-RHF iter   7:  -342.80104961611426   -7.21230e-07   1.88055e-06 DIIS
   @DF-RHF iter   8:  -342.80104965168942   -3.55752e-08   7.19078e-07 DIIS
   @DF-RHF iter   9:  -342.80104965605011   -4.36069e-09   1.56178e-07 DIIS
   @DF-RHF iter  10:  -342.80104965629664   -2.46530e-10   5.44109e-08 DIIS
   @DF-RHF iter  11:  -342.80104965632637   -2.97291e-11   1.38574e-08 DIIS
   @DF-RHF iter  12:  -342.80104965632870   -2.33058e-12   2.85295e-09 DIIS
  Energy and wave function converged.


  ==> Post-Iterations <==

    Orbital Energies [Eh]
    ---------------------

    Doubly Occupied:                                                      

       1A    -20.571694     2A    -20.557125     3A    -20.548508  
       4A    -11.282930     5A    -11.281259     6A    -11.279145  
       7A     -1.373167     8A     -1.354228     9A     -1.334860  
      10A     -1.030457    11A     -0.912352    12A     -0.805566  
      13A     -0.713704    14A     -0.696154    15A     -0.682884  
      16A     -0.639714    17A     -0.603349    18A     -0.601444  
      19A     -0.563371    20A     -0.531749    21A     -0.514375  
      22A     -0.476243    23A     -0.454357    24A     -0.443312  
      25A     -0.432142  

    Virtual:                                                              

      26A      0.206953    27A      0.222998    28A      0.254939  
      29A      0.262937    30A      0.300182    31A      0.313726  
      32A      0.327136    33A      0.339277    34A      0.366440  
      35A      0.409317    36A      0.425678    37A      0.448343  
      38A      0.485943    39A      0.771173    40A      0.786274  
      41A      0.810591    42A      0.826343    43A      0.831915  
      44A      0.867507    45A      0.910893    46A      0.951299  
      47A      1.011806    48A      1.068371    49A      1.085243  
      50A      1.094327    51A      1.114179    52A      1.123592  
      53A      1.140281    54A      1.162931    55A      1.180232  
      56A      1.206669    57A      1.226436    58A      1.255370  
      59A      1.268707    60A      1.292205    61A      1.325568  
      62A      1.363976    63A      1.427897    64A      1.479899  
      65A      1.538965    66A      1.593056    67A      1.608213  
      68A      1.656979    69A      1.693999    70A      1.845101  
      71A      1.874318    72A      1.922740    73A      1.991597  
      74A      2.025377    75A      2.027180    76A      2.047899  
      77A      2.055414    78A      2.104574    79A      2.219051  
      80A      2.232360    81A      2.260995    82A      2.383733  
      83A      2.397900    84A      2.426146    85A      2.459541  
      86A      2.499758    87A      2.548607    88A      2.639119  
      89A      2.678198    90A      2.746607    91A      2.758545  
      92A      2.793922    93A      2.815308    94A      2.893975  
      95A      2.908406    96A      2.983692    97A      3.083756  
      98A      3.245818    99A      3.268440   100A      3.296891  
     101A      4.131262   102A      4.192554   103A      4.288696  
     104A      4.668198   105A      4.754361   106A      4.977266  

    Final Occupation by Irrep:
              A 
    DOCC [    25 ]
    NA   [    25 ]
    NB   [    25 ]

  @DF-RHF Final Energy:  -342.80104965632870

   => Energetics <=

    Nuclear Repulsion Energy =            259.0028726090475857
    One-Electron Energy =                -984.2396670859355936
    Two-Electron Energy =                 382.4357448205593073
    Total Energy =                       -342.8010496563287006

Computation Completed


Properties will be evaluated at   0.000000,   0.000000,   0.000000 [a0]

Properties computed using the SCF density matrix


 Multipole Moments:

 ------------------------------------------------------------------------------------
     Multipole            Electronic (a.u.)      Nuclear  (a.u.)        Total (a.u.)
 ------------------------------------------------------------------------------------

 L = 1.  Multiply by 2.5417464519 to convert [e a0] to [Debye]
 Dipole X            :       -116.2727646          115.6911877           -0.5815769
 Dipole Y            :        -97.3051678           95.9344001           -1.3707678
 Dipole Z            :        129.3433627         -129.6990274           -0.3556647
 Magnitude           :                                                    1.5309257

 ------------------------------------------------------------------------------------

*** tstop() called on sb001.cluster at Tue Oct 24 16:46:34 2023
Module time:
	user time   =       4.62 seconds =       0.08 minutes
	system time =       0.49 seconds =       0.01 minutes
	total time  =          2 seconds =       0.03 minutes
Total time:
	user time   =       4.62 seconds =       0.08 minutes
	system time =       0.49 seconds =       0.01 minutes
	total time  =          2 seconds =       0.03 minutes

*** tstart() called on sb001.cluster
*** at Tue Oct 24 16:46:34 2023


         ------------------------------------------------------------
                                   SCF GRAD                          
                          Rob Parrish, Justin Turney,                
                       Andy Simmonett, and Alex Sokolov              
         ------------------------------------------------------------

  ==> Geometry <==

    Molecular point group: c1
    Full point group: C1

    Geometry (in Angstrom), charge = 0, multiplicity = 1:

       Center              X                  Y                   Z               Mass       
    ------------   -----------------  -----------------  -----------------  -----------------
         O            0.662290573000     1.518947363000     0.958147287000    15.994914619570
         C            0.952345967000     0.538462937000    -0.032555223000    12.000000000000
         C            1.143980265000     1.233094573000    -1.374383688000    12.000000000000
         O            2.467077732000     1.773290634000    -1.406449676000    15.994914619570
         C            0.985560060000     0.257294655000    -2.534839153000    12.000000000000
         O            1.171093345000     0.941158116000    -3.769816399000    15.994914619570
         H            0.545439780000     1.047703981000     1.800753474000     1.007825032230
         H            1.860896349000     0.009473858000     0.273769885000     1.007825032230
         H            0.114350498000    -0.164677382000    -0.068918392000     1.007825032230
         H            0.455191284000     2.079832554000    -1.471976757000     1.007825032230
         H            2.562606573000     2.207801580000    -2.266771555000     1.007825032230
         H           -0.009874296000    -0.197478950000    -2.545755625000     1.007825032230
         H            1.736638784000    -0.537530839000    -2.487229347000     1.007825032230
         H            1.060880065000     0.280891538000    -4.472022533000     1.007825032230

  Nuclear repulsion =  259.002872609047586

  ==> Basis Set <==

  Basis Set: 6-31G*
    Blend: 6-31G*
    Number of shells: 52
    Number of basis functions: 106
    Number of Cartesian functions: 106
    Spherical Harmonics?: false
    Max angular momentum: 2

  ==> DFJKGrad: Density-Fitted SCF Gradients <==

    Gradient:                    1
    J tasked:                  Yes
    K tasked:                  Yes
    wK tasked:                  No
    OpenMP threads:              4
    Integrals threads:           4
    Memory [MiB]:              375
    Schwarz Cutoff:          1E-12
    Fitting Condition:       1E-10

   => Auxiliary Basis Set <=

  Basis Set: (6-31G* AUX)
    Blend: CC-PVDZ-JKFIT
    Number of shells: 216
    Number of basis functions: 686
    Number of Cartesian functions: 686
    Spherical Harmonics?: false
    Max angular momentum: 3


  -Total Gradient:
     Atom            X                  Y                   Z
    ------   -----------------  -----------------  -----------------
       1        0.002093399824     0.020354585110    -0.012743580264
       2        0.004115787398    -0.009827326269    -0.018027659487
       3       -0.021877773682    -0.009807693228     0.004588651682
       4        0.012569534695    -0.001610044118     0.017843483789
       5        0.003891790659     0.004500693470     0.015851062376
       6        0.004398632627     0.016891823204     0.004709389905
       7       -0.003571278297    -0.015752552778     0.021844636951
       8        0.005236592795    -0.000309762012     0.010631063777
       9       -0.005600719212    -0.000904449923     0.004686902769
      10        0.002778181153     0.012652279314    -0.001655330823
      11       -0.000029123320     0.009232314821    -0.018663161740
      12       -0.004506399927    -0.001795523417    -0.005679629270
      13        0.004907122356    -0.003611580724    -0.008213946808
      14       -0.004405747067    -0.020012763449    -0.015171882859


*** tstop() called on sb001.cluster at Tue Oct 24 16:46:34 2023
Module time:
	user time   =       1.74 seconds =       0.03 minutes
	system time =       0.14 seconds =       0.00 minutes
	total time  =          0 seconds =       0.00 minutes
Total time:
	user time   =       6.37 seconds =       0.11 minutes
	system time =       0.63 seconds =       0.01 minutes
	total time  =          2 seconds =       0.03 minutes

    			-----------------------------------------

    			 OPTKING 3.0: for geometry optimizations 

    			     By R.A. King, Bethel University     

    			        with contributions from          

    			    A.V. Copan, J. Cayton, A. Heide      

    			-----------------------------------------

    
	                            ===> Fragment 1 <== 

	 Z (Atomic Numbers)          Masses                          Geom                  
	       8.000000            15.994915          1.25154780  2.87039452  1.81063596   
	       6.000000            12.000000          1.79967305  1.01754748 -0.06152046   
	       6.000000            12.000000          2.16180939  2.33021103 -2.59720876   
	       8.000000            15.994915          4.66210124  3.35103364 -2.65780470   
	       6.000000            12.000000          1.86243859  0.48621643 -4.79015177   
	       8.000000            15.994915          2.21304569  1.77853108 -7.12392054   
	       1.000000             1.007825          1.03073180  1.97987358  3.40293089   
	       1.000000             1.007825          3.51658445  0.01790300  0.51735010   
	       1.000000             1.007825          0.21609112 -0.31119515 -0.13023689   
	       1.000000             1.007825          0.86018686  3.93031391 -2.78163293   
	       1.000000             1.007825          4.84262459  4.17214033 -4.28357743   
	       1.000000             1.007825         -0.01865972 -0.37318113 -4.81078091   
	       1.000000             1.007825          3.28177168 -1.01578607 -4.70018228   
	       1.000000             1.007825          2.00477277  0.53080808 -8.45089781   

	 - Coordinate -           - BOHR/RAD -       - ANG/DEG -
	 H(1,8)           =         3.865189           2.045370
	 H(1,9)           =         3.868032           2.046874
	 H(6,12)          =         3.867944           2.046828
	 H(6,13)          =         3.850310           2.037497
	 R(1,2)           =         2.690437           1.423718
	 R(1,7)           =         1.837713           0.972476
	 R(2,3)           =         2.878184           1.523069
	 R(2,8)           =         2.069339           1.095047
	 R(2,9)           =         2.068335           1.094516
	 R(3,4)           =         2.701335           1.429485
	 R(3,5)           =         2.880788           1.524447
	 R(3,10)          =         2.070885           1.095865
	 R(4,11)          =         1.830285           0.968545
	 R(5,6)           =         2.690628           1.423819
	 R(5,12)          =         2.068217           1.094453
	 R(5,13)          =         2.068481           1.094593
	 R(6,14)          =         1.833319           0.970151
	 B(1,2,3)         =         1.901381         108.941127
	 B(1,2,8)         =         1.882899         107.882144
	 B(1,2,9)         =         1.885524         108.032573
	 B(2,1,7)         =         1.868878         107.078799
	 B(2,3,4)         =         1.884483         107.972939
	 B(2,3,5)         =         1.945114         111.446835
	 B(2,3,10)        =         1.930256         110.595500
	 B(3,2,8)         =         1.941610         111.246049
	 B(3,2,9)         =         1.939122         111.103531
	 B(3,4,11)        =         1.855370         106.304889
	 B(3,5,6)         =         1.916953         109.833300
	 B(3,5,12)        =         1.947749         111.597811
	 B(3,5,13)        =         1.939477         111.123822
	 B(4,3,5)         =         1.897583         108.723483
	 B(4,3,10)        =         1.862696         106.724607
	 B(5,3,10)        =         1.940646         111.190826
	 B(5,6,14)        =         1.860975         106.626032
	 B(6,5,12)        =         1.885405         108.025729
	 B(6,5,13)        =         1.872429         107.282275
	 B(8,2,9)         =         1.911546         109.523505
	 B(12,5,13)       =         1.899479         108.832114
	 D(1,2,3,4)       =         1.396263          79.999998
	 D(1,2,3,5)       =        -2.804024        -160.658727
	 D(1,2,3,10)      =        -0.635813         -36.429410
	 D(2,3,4,11)      =         3.141593         180.000000
	 D(2,3,5,6)       =         3.141593         180.000000
	 D(2,3,5,12)      =         1.051138          60.225790
	 D(2,3,5,13)      =        -1.072524         -61.451071
	 D(3,2,1,7)       =         3.141593         180.000000
	 D(3,5,6,14)      =         3.141593         180.000000
	 D(4,3,2,8)       =        -0.677172         -38.799094
	 D(4,3,2,9)       =        -2.811759        -161.101924
	 D(4,3,5,6)       =        -1.066494         -61.105625
	 D(4,3,5,12)      =         3.126237         179.120168
	 D(4,3,5,13)      =         1.002575          57.443307
	 D(5,3,2,8)       =         1.405726          80.542181
	 D(5,3,2,9)       =        -0.728861         -41.760649
	 D(5,3,4,11)      =         1.028825          58.947351
	 D(6,5,3,10)      =         0.979249          56.106821
	 D(7,1,2,8)       =        -1.031780         -59.116630
	 D(7,1,2,9)       =         1.033225          59.199417
	 D(8,2,3,10)      =        -2.709248        -155.228502
	 D(9,2,3,10)      =         1.439350          82.468668
	 D(10,3,4,11)     =        -1.066005         -61.077613
	 D(10,3,5,12)     =        -1.111206         -63.667387
	 D(10,3,5,13)     =         3.048318         174.655752
	 D(12,5,6,14)     =        -1.013531         -58.071029
	 D(13,5,6,14)     =         1.031608          59.106770


	        --- Internal Coordinate Step in ANG or DEG, aJ/ANG or AJ/DEG ---
	-------------------------------------------------------------------------------
	           Coordinate      Previous         Force          Change          New 
	           ----------      --------        ------          ------        ------
	               H(1,8)       2.04537       -0.00620        0.01761       2.06298
	               H(1,9)       2.04687       -0.01157        0.01189       2.05876
	              H(6,12)       2.04683        0.00359        0.01899       2.06582
	              H(6,13)       2.03750        0.01027        0.02313       2.06063
	               R(1,2)       1.42372       -0.06546       -0.01401       1.40971
	               R(1,7)       0.97248       -0.22236       -0.02642       0.94606
	               R(2,3)       1.52307       -0.06823       -0.01402       1.50905
	               R(2,8)       1.09505       -0.05688       -0.01242       1.08263
	               R(2,9)       1.09452       -0.03015       -0.00795       1.08657
	               R(3,4)       1.42948       -0.11951       -0.01817       1.41132
	               R(3,5)       1.52445       -0.07091       -0.01463       1.50982
	              R(3,10)       1.09586       -0.06737       -0.01225       1.08362
	              R(4,11)       0.96854       -0.17068       -0.01998       0.94856
	               R(5,6)       1.42382       -0.07431       -0.01196       1.41186
	              R(5,12)       1.09445       -0.04307       -0.00873       1.08572
	              R(5,13)       1.09459       -0.05405       -0.00995       1.08464
	              R(6,14)       0.97015       -0.20681       -0.02436       0.94579
	             B(1,2,3)     108.94113       -0.00044       -0.72824     108.21289
	             B(1,2,8)     107.88214        0.00062        3.17087     111.05301
	             B(1,2,9)     108.03257        0.00046        2.42210     110.45467
	             B(2,1,7)     107.07880        0.00042        1.82405     108.90285
	             B(2,3,4)     107.97294       -0.00018       -0.21860     107.75434
	             B(2,3,5)     111.44684        0.00026        0.32707     111.77390
	            B(2,3,10)     110.59550       -0.00019       -2.09409     108.50141
	             B(3,2,8)     111.24605       -0.00047       -2.97282     108.27323
	             B(3,2,9)     111.10353       -0.00015       -1.24372     109.85982
	            B(3,4,11)     106.30489        0.00028        1.23027     107.53516
	             B(3,5,6)     109.83330       -0.00118       -3.67574     106.15756
	            B(3,5,12)     111.59781        0.00002       -0.66765     110.93016
	            B(3,5,13)     111.12382       -0.00022       -2.08011     109.04371
	             B(4,3,5)     108.72348        0.00003        0.74450     109.46798
	            B(4,3,10)     106.72461        0.00034        3.46913     110.19374
	            B(5,3,10)     111.19083       -0.00024       -2.05678     109.13405
	            B(5,6,14)     106.62603        0.00061        2.68408     109.31011
	            B(6,5,12)     108.02573        0.00067        2.91002     110.93575
	            B(6,5,13)     107.28228        0.00076        3.29372     110.57599
	             B(8,2,9)     109.52351        0.00003       -0.57044     108.95306
	           B(12,5,13)     108.83211        0.00001        0.32537     109.15748
	           D(1,2,3,4)      80.00000        0.00003       -0.52129      79.47871
	           D(1,2,3,5)    -160.65873        0.00010        0.45076    -160.20796
	          D(1,2,3,10)     -36.42941       -0.00017       -3.39003     -39.81944
	          D(2,3,4,11)     180.00000        0.00009       -0.94808     179.05192
	           D(2,3,5,6)     180.00000       -0.00003        0.23805     180.23805
	          D(2,3,5,12)      60.22579       -0.00010       -0.59204      59.63375
	          D(2,3,5,13)     -61.45107        0.00003        0.83894     -60.61213
	           D(3,2,1,7)     180.00000        0.00013        2.69161     182.69161
	          D(3,5,6,14)     180.00000       -0.00011       -2.49527     177.50473
	           D(4,3,2,8)     -38.79909       -0.00018       -2.18026     -40.97936
	           D(4,3,2,9)    -161.10192        0.00022        1.24501    -159.85692
	           D(4,3,5,6)     -61.10562       -0.00008        0.64971     -60.45591
	          D(4,3,5,12)     179.12017       -0.00016       -0.18038     178.93979
	          D(4,3,5,13)      57.44331       -0.00002        1.25060      58.69391
	           D(5,3,2,8)      80.54218       -0.00011       -1.20821      79.33397
	           D(5,3,2,9)     -41.76065        0.00029        2.21705     -39.54360
	          D(5,3,4,11)      58.94735       -0.00012       -1.65100      57.29635
	          D(6,5,3,10)      56.10682        0.00021        4.11307      60.21990
	           D(7,1,2,8)     -59.11663       -0.00032        0.51640     -58.60023
	           D(7,1,2,9)      59.19942        0.00030        3.19884      62.39826
	          D(8,2,3,10)    -155.22850       -0.00038       -5.04901    -160.27751
	          D(9,2,3,10)      82.46867        0.00002       -1.62374      80.84492
	         D(10,3,4,11)     -61.07761       -0.00004       -1.65518     -62.73279
	         D(10,3,5,12)     -63.66739        0.00013        3.28299     -60.38440
	         D(10,3,5,13)     174.65575        0.00027        4.71397     179.36972
	         D(12,5,6,14)     -58.07103       -0.00038       -3.82356     -61.89459
	         D(13,5,6,14)      59.10677        0.00038        0.25865      59.36542
	-------------------------------------------------------------------------------

	                                 ==> Convergence Check <==                                  
    
	Measures of convergence in internal coordinates in au.
    
	Criteria marked as inactive (o), active & met (*), and active & unmet ( ).

	----------------------------------------------------------------------------------------------
	   Step    Total Energy     Delta E     Max Force     RMS Force      Max Disp      RMS Disp   
	----------------------------------------------------------------------------------------------
	  Convergence Criteria     1.00e-06 *    3.00e-04 *             o    1.20e-03 *             o
	----------------------------------------------------------------------------------------------
	     1    -342.80104966   -3.43e+02      2.70e-02      7.27e-03 o    8.81e-02      3.77e-02 o  ~
	----------------------------------------------------------------------------------------------

Next Geometry in Ang 
	Fragment 1 (Ang)

	    O   0.6651522998   1.5333230822   0.9142427515
	    C   0.9500748567   0.5367769498  -0.0412637818
	    C   1.1388784728   1.2071549669  -1.3799884038
	    O   2.4419617199   1.7483317138  -1.4103301539
	    C   0.9714162719   0.2340834785  -2.5221960905
	    O   1.1761255918   0.9775057923  -3.7048864163
	    H   0.5859773570   1.1280943952   1.7654468585
	    H   1.8629814607   0.0101490739   0.2064179502
	    H   0.1343391948  -0.1787147407  -0.0985043147
	    H   0.4034135977   1.9971918352  -1.4757073825
	    H   2.5624828145   2.1558999713  -2.2583491470
	    H  -0.0187207799  -0.2112073832  -2.5103564327
	    H   1.7153968498  -0.5499194192  -2.4311742524
	    H   1.1189972715   0.3995949019  -4.4513988865


    Structure for next step:
    Molecular point group: c1
    Full point group: C1

    Geometry (in Angstrom), charge = 0, multiplicity = 1:

    O            0.665152299829     1.533323082179     0.914242751451
    C            0.950074856659     0.536776949828    -0.041263781794
    C            1.138878472800     1.207154966887    -1.379988403845
    O            2.441961719891     1.748331713842    -1.410330153857
    C            0.971416271921     0.234083478528    -2.522196090464
    O            1.176125591818     0.977505792301    -3.704886416276
    H            0.585977356984     1.128094395161     1.765446858499
    H            1.862981460698     0.010149073947     0.206417950218
    H            0.134339194849    -0.178714740670    -0.098504314743
    H            0.403413597668     1.997191835249    -1.475707382527
    H            2.562482814523     2.155899971299    -2.258349146981
    H           -0.018720779910    -0.211207383204    -2.510356432749
    H            1.715396849750    -0.549919419220    -2.431174252402
    H            1.118997271521     0.399594901874    -4.451398886529


Scratch directory: /mnt/storage/nobackup/nca121/scratch_dir/
gradient() will perform analytic gradient computation.
   => Libint2 <=

    Primary   basis highest AM E, G, H:  5, 4, 3
    Auxiliary basis highest AM E, G, H:  6, 5, 4
    Onebody   basis highest AM E, G, H:  6, 5, 4
    Solid Harmonics ordering:            gaussian

*** tstart() called on sb001.cluster
*** at Tue Oct 24 16:46:35 2023

   => Loading Basis Set <=

    Name: 6-31G*
    Role: ORBITAL
    Keyword: BASIS
    atoms 1, 4, 6 entry O          line   145 file /mnt/nfs/home/nca121/.conda/envs/p4env/share/psi4/basis/6-31gs.gbs 
    atoms 2-3, 5  entry C          line   111 file /mnt/nfs/home/nca121/.conda/envs/p4env/share/psi4/basis/6-31gs.gbs 
    atoms 7-14    entry H          line    44 file /mnt/nfs/home/nca121/.conda/envs/p4env/share/psi4/basis/6-31gs.gbs 


         ---------------------------------------------------------
                                   SCF
               by Justin Turney, Rob Parrish, Andy Simmonett
                          and Daniel G. A. Smith
                              RHF Reference
                        4 Threads,    500 MiB Core
         ---------------------------------------------------------

  ==> Geometry <==

    Molecular point group: c1
    Full point group: C1

    Geometry (in Angstrom), charge = 0, multiplicity = 1:

       Center              X                  Y                   Z               Mass       
    ------------   -----------------  -----------------  -----------------  -----------------
         O            0.665152299829     1.533323082179     0.914242751451    15.994914619570
         C            0.950074856659     0.536776949828    -0.041263781794    12.000000000000
         C            1.138878472800     1.207154966887    -1.379988403845    12.000000000000
         O            2.441961719891     1.748331713842    -1.410330153857    15.994914619570
         C            0.971416271921     0.234083478528    -2.522196090464    12.000000000000
         O            1.176125591818     0.977505792301    -3.704886416276    15.994914619570
         H            0.585977356984     1.128094395161     1.765446858499     1.007825032230
         H            1.862981460698     0.010149073947     0.206417950218     1.007825032230
         H            0.134339194849    -0.178714740670    -0.098504314743     1.007825032230
         H            0.403413597668     1.997191835249    -1.475707382527     1.007825032230
         H            2.562482814523     2.155899971299    -2.258349146981     1.007825032230
         H           -0.018720779910    -0.211207383204    -2.510356432749     1.007825032230
         H            1.715396849750    -0.549919419220    -2.431174252402     1.007825032230
         H            1.118997271521     0.399594901874    -4.451398886529     1.007825032230

  Running in c1 symmetry.

  Rotational constants: A =      0.10966  B =      0.02914  C =      0.02396 [cm^-1]
  Rotational constants: A =   3287.57159  B =    873.66988  C =    718.38667 [MHz]
  Nuclear repulsion =  262.730091387722609

  Charge       = 0
  Multiplicity = 1
  Electrons    = 50
  Nalpha       = 25
  Nbeta        = 25

  ==> Algorithm <==

  SCF Algorithm Type is DF.
  DIIS enabled.
  MOM disabled.
  Fractional occupation disabled.
  Guess Type is READ.
  Energy threshold   = 1.00e-08
  Density threshold  = 1.00e-08
  Integral threshold = 1.00e-12

  ==> Primary Basis <==

  Basis Set: 6-31G*
    Blend: 6-31G*
    Number of shells: 52
    Number of basis functions: 106
    Number of Cartesian functions: 106
    Spherical Harmonics?: false
    Max angular momentum: 2

   => Loading Basis Set <=

    Name: (6-31G* AUX)
    Role: JKFIT
    Keyword: DF_BASIS_SCF
    atoms 1, 4, 6 entry O          line   221 file /mnt/nfs/home/nca121/.conda/envs/p4env/share/psi4/basis/cc-pvdz-jkfit.gbs 
    atoms 2-3, 5  entry C          line   121 file /mnt/nfs/home/nca121/.conda/envs/p4env/share/psi4/basis/cc-pvdz-jkfit.gbs 
    atoms 7-14    entry H          line    51 file /mnt/nfs/home/nca121/.conda/envs/p4env/share/psi4/basis/cc-pvdz-jkfit.gbs 

   => Loading Basis Set <=

    Name: 6-31G*
    Role: ORBITAL
    Keyword: BASIS
    atoms 1, 4, 6 entry O          line   145 file /mnt/nfs/home/nca121/.conda/envs/p4env/share/psi4/basis/6-31gs.gbs 
    atoms 2-3, 5  entry C          line   111 file /mnt/nfs/home/nca121/.conda/envs/p4env/share/psi4/basis/6-31gs.gbs 
    atoms 7-14    entry H          line    44 file /mnt/nfs/home/nca121/.conda/envs/p4env/share/psi4/basis/6-31gs.gbs 

  Reading orbitals from file /mnt/storage/nobackup/nca121/scratch_dir/out.mol.19512.180.npy, no projection.

  ==> Integral Setup <==

  DFHelper Memory: AOs need 0.062 GiB; user supplied 0.366 GiB. 
  Using in-core AOs.

  ==> MemDFJK: Density-Fitted J/K Matrices <==

    J tasked:                   Yes
    K tasked:                   Yes
    wK tasked:                   No
    OpenMP threads:               4
    Memory [MiB]:               375
    Algorithm:                 Core
    Schwarz Cutoff:           1E-12
    Mask sparsity (%):       3.1684
    Fitting Condition:        1E-10

   => Auxiliary Basis Set <=

  Basis Set: (6-31G* AUX)
    Blend: CC-PVDZ-JKFIT
    Number of shells: 216
    Number of basis functions: 686
    Number of Cartesian functions: 686
    Spherical Harmonics?: false
    Max angular momentum: 3

  Minimum eigenvalue in the overlap matrix is 2.9126889547E-03.
  Reciprocal condition number of the overlap matrix is 4.0091671532E-04.
    Using symmetric orthogonalization.

  ==> Pre-Iterations <==

  SCF Guess: Orbitals guess was supplied from a previous computation.

   -------------------------------------------------------
    Irrep   Nso     Nmo     Nalpha   Nbeta   Ndocc  Nsocc
   -------------------------------------------------------
     A        106     106      25      25      25       0
   -------------------------------------------------------
    Total     106     106      25      25      25       0
   -------------------------------------------------------

  ==> Iterations <==

                           Total Energy        Delta E     RMS |[F,P]|

   @DF-RHF iter   0:  -342.88663697626964   -3.42887e+02   1.41554e-03 
   @DF-RHF iter   1:  -342.80643938185790    8.01976e-02   2.28028e-04 DIIS/ADIIS
   @DF-RHF iter   2:  -342.80690950472132   -4.70123e-04   8.73965e-05 DIIS
   @DF-RHF iter   3:  -342.80698293177369   -7.34271e-05   3.94395e-05 DIIS
   @DF-RHF iter   4:  -342.80699808088235   -1.51491e-05   9.91271e-06 DIIS
   @DF-RHF iter   5:  -342.80699923449129   -1.15361e-06   3.19756e-06 DIIS
   @DF-RHF iter   6:  -342.80699936973832   -1.35247e-07   9.91442e-07 DIIS
   @DF-RHF iter   7:  -342.80699938231743   -1.25791e-08   2.61506e-07 DIIS
   @DF-RHF iter   8:  -342.80699938344765   -1.13022e-09   6.87443e-08 DIIS
   @DF-RHF iter   9:  -342.80699938351029   -6.26414e-11   2.49308e-08 DIIS
   @DF-RHF iter  10:  -342.80699938351660   -6.30962e-12   6.05241e-09 DIIS
  Energy and wave function converged.


  ==> Post-Iterations <==

    Orbital Energies [Eh]
    ---------------------

    Doubly Occupied:                                                      

       1A    -20.571045     2A    -20.554521     3A    -20.544804  
       4A    -11.277058     5A    -11.271045     6A    -11.269654  
       7A     -1.384079     8A     -1.363100     9A     -1.342082  
      10A     -1.038122    11A     -0.919374    12A     -0.806448  
      13A     -0.725268    14A     -0.706142    15A     -0.692300  
      16A     -0.645584    17A     -0.603872    18A     -0.596022  
      19A     -0.567402    20A     -0.534273    21A     -0.518244  
      22A     -0.472197    23A     -0.458413    24A     -0.444098  
      25A     -0.429714  

    Virtual:                                                              

      26A      0.215403    27A      0.231437    28A      0.254413  
      29A      0.273936    30A      0.304973    31A      0.320760  
      32A      0.334858    33A      0.345710    34A      0.375874  
      35A      0.414751    36A      0.437901    37A      0.454620  
      38A      0.493737    39A      0.771198    40A      0.784229  
      41A      0.817456    42A      0.832642    43A      0.840319  
      44A      0.862405    45A      0.926170    46A      0.958406  
      47A      1.000123    48A      1.074900    49A      1.098237  
      50A      1.106645    51A      1.130799    52A      1.133462  
      53A      1.149812    54A      1.177260    55A      1.190023  
      56A      1.222625    57A      1.244688    58A      1.267813  
      59A      1.284101    60A      1.303221    61A      1.341032  
      62A      1.358510    63A      1.425758    64A      1.483093  
      65A      1.548554    66A      1.599327    67A      1.628032  
      68A      1.658705    69A      1.705609    70A      1.845152  
      71A      1.882334    72A      1.923057    73A      1.998252  
      74A      2.012363    75A      2.047800    76A      2.073007  
      77A      2.079031    78A      2.123804    79A      2.237337  
      80A      2.252029    81A      2.275887    82A      2.397618  
      83A      2.409631    84A      2.426050    85A      2.465051  
      86A      2.504749    87A      2.536558    88A      2.668146  
      89A      2.699640    90A      2.774754    91A      2.781953  
      92A      2.825825    93A      2.856291    94A      2.917022  
      95A      2.942635    96A      3.023963    97A      3.092457  
      98A      3.248045    99A      3.275313   100A      3.316113  
     101A      4.155033   102A      4.207229   103A      4.305181  
     104A      4.683243   105A      4.763355   106A      4.989224  

    Final Occupation by Irrep:
              A 
    DOCC [    25 ]
    NA   [    25 ]
    NB   [    25 ]

  @DF-RHF Final Energy:  -342.80699938351660

   => Energetics <=

    Nuclear Repulsion Energy =            262.7300913877226094
    One-Electron Energy =                -991.6044618702870821
    Two-Electron Energy =                 386.0673710990478753
    Total Energy =                       -342.8069993835165974

Computation Completed


Properties will be evaluated at   0.000000,   0.000000,   0.000000 [a0]

Properties computed using the SCF density matrix


 Multipole Moments:

 ------------------------------------------------------------------------------------
     Multipole            Electronic (a.u.)      Nuclear  (a.u.)        Total (a.u.)
 ------------------------------------------------------------------------------------

 L = 1.  Multiply by 2.5417464519 to convert [e a0] to [Debye]
 Dipole X            :       -115.7625087          115.2600699           -0.5024388
 Dipole Y            :        -97.1187384           95.7948768           -1.3238616
 Dipole Z            :        129.0852774         -129.4880135           -0.4027361
 Magnitude           :                                                    1.4721585

 ------------------------------------------------------------------------------------

*** tstop() called on sb001.cluster at Tue Oct 24 16:46:35 2023
Module time:
	user time   =       2.75 seconds =       0.05 minutes
	system time =       0.22 seconds =       0.00 minutes
	total time  =          0 seconds =       0.00 minutes
Total time:
	user time   =       9.98 seconds =       0.17 minutes
	system time =       0.94 seconds =       0.02 minutes
	total time  =          3 seconds =       0.05 minutes

*** tstart() called on sb001.cluster
*** at Tue Oct 24 16:46:35 2023


         ------------------------------------------------------------
                                   SCF GRAD                          
                          Rob Parrish, Justin Turney,                
                       Andy Simmonett, and Alex Sokolov              
         ------------------------------------------------------------

  ==> Geometry <==

    Molecular point group: c1
    Full point group: C1

    Geometry (in Angstrom), charge = 0, multiplicity = 1:

       Center              X                  Y                   Z               Mass       
    ------------   -----------------  -----------------  -----------------  -----------------
         O            0.665152299829     1.533323082179     0.914242751451    15.994914619570
         C            0.950074856659     0.536776949828    -0.041263781794    12.000000000000
         C            1.138878472800     1.207154966887    -1.379988403845    12.000000000000
         O            2.441961719891     1.748331713842    -1.410330153857    15.994914619570
         C            0.971416271921     0.234083478528    -2.522196090464    12.000000000000
         O            1.176125591818     0.977505792301    -3.704886416276    15.994914619570
         H            0.585977356984     1.128094395161     1.765446858499     1.007825032230
         H            1.862981460698     0.010149073947     0.206417950218     1.007825032230
         H            0.134339194849    -0.178714740670    -0.098504314743     1.007825032230
         H            0.403413597668     1.997191835249    -1.475707382527     1.007825032230
         H            2.562482814523     2.155899971299    -2.258349146981     1.007825032230
         H           -0.018720779910    -0.211207383204    -2.510356432749     1.007825032230
         H            1.715396849750    -0.549919419220    -2.431174252402     1.007825032230
         H            1.118997271521     0.399594901874    -4.451398886529     1.007825032230

  Nuclear repulsion =  262.730091387722609

  ==> Basis Set <==

  Basis Set: 6-31G*
    Blend: 6-31G*
    Number of shells: 52
    Number of basis functions: 106
    Number of Cartesian functions: 106
    Spherical Harmonics?: false
    Max angular momentum: 2

  ==> DFJKGrad: Density-Fitted SCF Gradients <==

    Gradient:                    1
    J tasked:                  Yes
    K tasked:                  Yes
    wK tasked:                  No
    OpenMP threads:              4
    Integrals threads:           4
    Memory [MiB]:              375
    Schwarz Cutoff:          1E-12
    Fitting Condition:       1E-10

   => Auxiliary Basis Set <=

  Basis Set: (6-31G* AUX)
    Blend: CC-PVDZ-JKFIT
    Number of shells: 216
    Number of basis functions: 686
    Number of Cartesian functions: 686
    Spherical Harmonics?: false
    Max angular momentum: 3


  -Total Gradient:
     Atom            X                  Y                   Z
    ------   -----------------  -----------------  -----------------
       1       -0.000493910688     0.005994808683     0.003646366397
       2        0.001585859560    -0.007317044887    -0.006129964283
       3       -0.009279991012    -0.004299453228    -0.001982055525
       4        0.007476759980     0.001404624912     0.000409976482
       5       -0.001379886034    -0.003953878209     0.005960165924
       6        0.001714068375     0.004350173365    -0.002470551203
       7       -0.000576525797    -0.000796669029    -0.001245560652
       8       -0.001011054782     0.002368778829    -0.001112618442
       9        0.001215553427     0.000962786895    -0.000690015608
      10        0.001673877652    -0.000679717645     0.000588908351
      11       -0.000590428524    -0.000109870599     0.000084248155
      12        0.000828279553     0.000095687809     0.000431754930
      13       -0.000244328208     0.002553123995     0.000681432834
      14       -0.000918273501    -0.000573350890     0.001827912641


*** tstop() called on sb001.cluster at Tue Oct 24 16:46:36 2023
Module time:
	user time   =       1.75 seconds =       0.03 minutes
	system time =       0.09 seconds =       0.00 minutes
	total time  =          1 seconds =       0.02 minutes
Total time:
	user time   =      11.74 seconds =       0.20 minutes
	system time =       1.03 seconds =       0.02 minutes
	total time  =          4 seconds =       0.07 minutes

    			-----------------------------------------

    			 OPTKING 3.0: for geometry optimizations 

    			     By R.A. King, Bethel University     

    			        with contributions from          

    			    A.V. Copan, J. Cayton, A. Heide      

    			-----------------------------------------

    
	                            ===> Fragment 1 <== 

	 Z (Atomic Numbers)          Masses                          Geom                  
	       8.000000            15.994915          1.25695568  2.89756069  1.72766841   
	       6.000000            12.000000          1.79538128  1.01436143 -0.07797725   
	       6.000000            12.000000          2.15216840  2.28119228 -2.60780014   
	       8.000000            15.994915          4.61463886  3.30386812 -2.66513774   
	       6.000000            12.000000          1.83571071  0.44235366 -4.76625985   
	       8.000000            15.994915          2.22255526  1.84721823 -7.00122065   
	       1.000000             1.007825          1.10733672  2.13178945  3.33621105   
	       1.000000             1.007825          3.52052474  0.01917897  0.39007339   
	       1.000000             1.007825          0.25386429 -0.33772191 -0.18614618   
	       1.000000             1.007825          0.76234121  3.77414559 -2.78868279   
	       1.000000             1.007825          4.84239072  4.07406050 -4.26766138   
	       1.000000             1.007825         -0.03537715 -0.39912411 -4.74388614   
	       1.000000             1.007825          3.24163024 -1.03919709 -4.59425350   
	       1.000000             1.007825          2.11459838  0.75512493 -8.41192477   

	 - Coordinate -           - BOHR/RAD -       - ANG/DEG -
	 H(1,8)           =         3.898460           2.062976
	 H(1,9)           =         3.890493           2.058760
	 H(6,12)          =         3.903828           2.065817
	 H(6,13)          =         3.894021           2.060627
	 R(1,2)           =         2.663963           1.409708
	 R(1,7)           =         1.787792           0.946059
	 R(2,3)           =         2.851694           1.509052
	 R(2,8)           =         2.045869           1.082627
	 R(2,9)           =         2.053315           1.086568
	 R(3,4)           =         2.667005           1.411318
	 R(3,5)           =         2.853142           1.509818
	 R(3,10)          =         2.047742           1.083618
	 R(4,11)          =         1.792526           0.948564
	 R(5,6)           =         2.668022           1.411857
	 R(5,12)          =         2.051720           1.085723
	 R(5,13)          =         2.049680           1.084644
	 R(6,14)          =         1.787291           0.945794
	 B(1,2,3)         =         1.888671         108.212892
	 B(1,2,8)         =         1.938241         111.053012
	 B(1,2,9)         =         1.927798         110.454670
	 B(2,1,7)         =         1.900713         108.902848
	 B(2,3,4)         =         1.880668         107.754342
	 B(2,3,5)         =         1.950823         111.773903
	 B(2,3,10)        =         1.893707         108.501411
	 B(3,2,8)         =         1.889724         108.273227
	 B(3,2,9)         =         1.917415         109.859815
	 B(3,4,11)        =         1.876843         107.535158
	 B(3,5,6)         =         1.852799         106.157557
	 B(3,5,12)        =         1.936097         110.930163
	 B(3,5,13)        =         1.903172         109.043711
	 B(4,3,5)         =         1.910577         109.467983
	 B(4,3,10)        =         1.923244         110.193736
	 B(5,3,10)        =         1.904748         109.134046
	 B(5,6,14)        =         1.907821         109.310112
	 B(6,5,12)        =         1.936194         110.935751
	 B(6,5,13)        =         1.929915         110.575991
	 B(8,2,9)         =         1.901590         108.953060
	 B(12,5,13)       =         1.905158         109.157484
	 D(1,2,3,4)       =         1.387165          79.478713
	 D(1,2,3,5)       =        -2.796156        -160.207964
	 D(1,2,3,10)      =        -0.694980         -39.819444
	 D(2,3,4,11)      =         3.125046         179.051923
	 D(2,3,5,6)       =         3.145747         180.238050
	 D(2,3,5,12)      =         1.040805          59.633755
	 D(2,3,5,13)      =        -1.057881         -60.612126
	 D(3,2,1,7)       =         3.188570         182.691612
	 D(3,5,6,14)      =         3.098042         177.504731
	 D(4,3,2,8)       =        -0.715225         -40.979357
	 D(4,3,2,9)       =        -2.790030        -159.856919
	 D(4,3,5,6)       =        -1.055155         -60.455912
	 D(4,3,5,12)      =         3.123089         178.939793
	 D(4,3,5,13)      =         1.024402          58.693912
	 D(5,3,2,8)       =         1.384639          79.333966
	 D(5,3,2,9)       =        -0.690166         -39.543595
	 D(5,3,4,11)      =         1.000010          57.296350
	 D(6,5,3,10)      =         1.051035          60.219895
	 D(7,1,2,8)       =        -1.022767         -58.600230
	 D(7,1,2,9)       =         1.089055          62.398261
	 D(8,2,3,10)      =        -2.797370        -160.277513
	 D(9,2,3,10)      =         1.411010          80.844925
	 D(10,3,4,11)     =        -1.094894         -62.732789
	 D(10,3,5,12)     =        -1.053907         -60.384400
	 D(10,3,5,13)     =         3.130592         179.369719
	 D(12,5,6,14)     =        -1.080264         -61.894588
	 D(13,5,6,14)     =         1.036122          59.365422


	        --- Internal Coordinate Step in ANG or DEG, aJ/ANG or AJ/DEG ---
	-------------------------------------------------------------------------------
	           Coordinate      Previous         Force          Change          New 
	           ----------      --------        ------          ------        ------
	               H(1,8)       2.06298       -0.00831       -0.00279       2.06019
	               H(1,9)       2.05876       -0.01076       -0.00501       2.05375
	              H(6,12)       2.06582       -0.00713       -0.00408       2.06174
	              H(6,13)       2.06063       -0.00505       -0.00093       2.05969
	               R(1,2)       1.40971       -0.02887       -0.00706       1.40265
	               R(1,7)       0.94606        0.00602       -0.00098       0.94508
	               R(2,3)       1.50905        0.04561        0.00853       1.51758
	               R(2,8)       1.08263        0.02501        0.00285       1.08548
	               R(2,9)       1.08657        0.02070        0.00216       1.08873
	               R(3,4)       1.41132       -0.05639       -0.00971       1.40160
	               R(3,5)       1.50982        0.05321        0.01011       1.51992
	              R(3,10)       1.08362        0.01387        0.00174       1.08536
	              R(4,11)       0.94856        0.00163       -0.00109       0.94747
	               R(5,6)       1.41186       -0.01117       -0.00364       1.40822
	              R(5,12)       1.08572        0.01199        0.00100       1.08673
	              R(5,13)       1.08464        0.01999        0.00235       1.08700
	              R(6,14)       0.94579        0.00854       -0.00056       0.94523
	             B(1,2,3)     108.21289        0.00006        0.41821     108.63110
	             B(1,2,8)     111.05301       -0.00002        0.09671     111.14972
	             B(1,2,9)     110.45467       -0.00001       -0.04395     110.41072
	             B(2,1,7)     108.90285        0.00015        0.80575     109.70860
	             B(2,3,4)     107.75434       -0.00002        0.17386     107.92820
	             B(2,3,5)     111.77390        0.00013        0.69304     112.46694
	            B(2,3,10)     108.50141       -0.00002       -0.25142     108.24999
	             B(3,2,8)     108.27323        0.00003        0.10149     108.37472
	             B(3,2,9)     109.85982        0.00000        0.07744     109.93725
	            B(3,4,11)     107.53516        0.00008        0.42343     107.95858
	             B(3,5,6)     106.15756        0.00018        0.55200     106.70956
	            B(3,5,12)     110.93016       -0.00006       -0.30866     110.62151
	            B(3,5,13)     109.04371        0.00005        0.42451     109.46823
	             B(4,3,5)     109.46798       -0.00002        0.14245     109.61043
	            B(4,3,10)     110.19374        0.00000       -0.10950     110.08424
	            B(5,3,10)     109.13405       -0.00006       -0.65025     108.48380
	            B(5,6,14)     109.31011        0.00023        1.23515     110.54527
	            B(6,5,12)     110.93575       -0.00005       -0.13899     110.79677
	            B(6,5,13)     110.57599       -0.00007        0.03473     110.61073
	             B(8,2,9)     108.95306       -0.00006       -0.64221     108.31085
	           B(12,5,13)     109.15748       -0.00004       -0.53167     108.62582
	           D(1,2,3,4)      79.47871       -0.00004       -5.33177      74.14694
	           D(1,2,3,5)    -160.20796       -0.00001       -4.61299    -164.82095
	          D(1,2,3,10)     -39.81944       -0.00002       -5.15943     -44.97888
	          D(2,3,4,11)     179.05192        0.00005       -1.51286     177.53906
	           D(2,3,5,6)     180.23805        0.00000        4.51819     184.75624
	          D(2,3,5,12)      59.63375       -0.00001        4.52186      64.15562
	          D(2,3,5,13)     -60.61213        0.00004        5.10022     -55.51190
	           D(3,2,1,7)     182.69161        0.00003        8.27560     190.96722
	          D(3,5,6,14)     177.50473        0.00001       -6.40369     171.10104
	           D(4,3,2,8)     -40.97936       -0.00007       -5.75110     -46.73045
	           D(4,3,2,9)    -159.85692       -0.00001       -5.07956    -164.93648
	           D(4,3,5,6)     -60.45591        0.00004        5.27554     -55.18037
	          D(4,3,5,12)     178.93979        0.00003        5.27922     184.21901
	          D(4,3,5,13)      58.69391        0.00008        5.85758      64.55149
	           D(5,3,2,8)      79.33397       -0.00004       -5.03232      74.30165
	           D(5,3,2,9)     -39.54360        0.00002       -4.36078     -43.90438
	          D(5,3,4,11)      57.29635       -0.00008       -2.55381      54.74254
	          D(6,5,3,10)      60.21990       -0.00001        4.82995      65.04985
	           D(7,1,2,8)     -58.60023        0.00009        8.71879     -49.88144
	           D(7,1,2,9)      62.39826       -0.00001        7.94453      70.34280
	          D(8,2,3,10)    -160.27751       -0.00005       -5.57876    -165.85627
	          D(9,2,3,10)      80.84492        0.00001       -4.90722      75.93770
	         D(10,3,4,11)     -62.73279        0.00001       -1.77472     -64.50751
	         D(10,3,5,12)     -60.38440       -0.00002        4.83363     -55.55077
	         D(10,3,5,13)     179.36972        0.00003        5.41199     184.78171
	         D(12,5,6,14)     -61.89459        0.00002       -6.51604     -68.41062
	         D(13,5,6,14)      59.36542       -0.00012       -7.25549      52.10993
	-------------------------------------------------------------------------------

	                                 ==> Convergence Check <==                                  
    
	Measures of convergence in internal coordinates in au.
    
	Criteria marked as inactive (o), active & met (*), and active & unmet ( ).

	----------------------------------------------------------------------------------------------
	   Step    Total Energy     Delta E     Max Force     RMS Force      Max Disp      RMS Disp   
	----------------------------------------------------------------------------------------------
	  Convergence Criteria     1.00e-06 *    3.00e-04 *             o    1.20e-03 *             o
	----------------------------------------------------------------------------------------------
	     2    -342.80699938   -5.95e-03      6.84e-03      1.77e-03 o    1.52e-01      6.25e-02 o  ~
	----------------------------------------------------------------------------------------------

Next Geometry in Ang 
	Fragment 1 (Ang)

	    O   0.7181556381   1.5241713439   0.9412868764
	    C   0.9229260289   0.5349376896  -0.0318029499
	    C   1.0951846125   1.2095703142  -1.3802256172
	    O   2.3678251391   1.7960922884  -1.4097768094
	    C   0.9551819654   0.2359384007  -2.5389349682
	    O   1.2440811534   0.9588524409  -3.7123990317
	    H   0.7770146056   1.1405976544   1.8030169150
	    H   1.8177344950  -0.0423234057   0.1787973511
	    H   0.0752392147  -0.1475117342  -0.0637131739
	    H   0.3303873931   1.9734233285  -1.4782958134
	    H   2.4907207479   2.1844410157  -2.2652232773
	    H  -0.0509172208  -0.1731938324  -2.5756398282
	    H   1.6585051574  -0.5829310215  -2.4110564199
	    H   1.3064380489   0.3762001355  -4.4540809555


    Structure for next step:
    Molecular point group: c1
    Full point group: C1

    Geometry (in Angstrom), charge = 0, multiplicity = 1:

    O            0.718155638126     1.524171343922     0.941286876430
    C            0.922926028852     0.534937689628    -0.031802949941
    C            1.095184612472     1.209570314152    -1.380225617206
    O            2.367825139123     1.796092288377    -1.409776809358
    C            0.955181965365     0.235938400731    -2.538934968180
    O            1.244081153367     0.958852440881    -3.712399031715
    H            0.777014605615     1.140597654420     1.803016915029
    H            1.817734494980    -0.042323405744     0.178797351135
    H            0.075239214655    -0.147511734160    -0.063713173901
    H            0.330387393112     1.973423328506    -1.478295813408
    H            2.490720747933     2.184441015656    -2.265223277275
    H           -0.050917220814    -0.173193832364    -2.575639828218
    H            1.658505157363    -0.582931021544    -2.411056419898
    H            1.306438048851     0.376200135539    -4.454080955493


Scratch directory: /mnt/storage/nobackup/nca121/scratch_dir/
gradient() will perform analytic gradient computation.
   => Libint2 <=

    Primary   basis highest AM E, G, H:  5, 4, 3
    Auxiliary basis highest AM E, G, H:  6, 5, 4
    Onebody   basis highest AM E, G, H:  6, 5, 4
    Solid Harmonics ordering:            gaussian

*** tstart() called on sb001.cluster
*** at Tue Oct 24 16:46:36 2023

   => Loading Basis Set <=

    Name: 6-31G*
    Role: ORBITAL
    Keyword: BASIS
    atoms 1, 4, 6 entry O          line   145 file /mnt/nfs/home/nca121/.conda/envs/p4env/share/psi4/basis/6-31gs.gbs 
    atoms 2-3, 5  entry C          line   111 file /mnt/nfs/home/nca121/.conda/envs/p4env/share/psi4/basis/6-31gs.gbs 
    atoms 7-14    entry H          line    44 file /mnt/nfs/home/nca121/.conda/envs/p4env/share/psi4/basis/6-31gs.gbs 


         ---------------------------------------------------------
                                   SCF
               by Justin Turney, Rob Parrish, Andy Simmonett
                          and Daniel G. A. Smith
                              RHF Reference
                        4 Threads,    500 MiB Core
         ---------------------------------------------------------

  ==> Geometry <==

    Molecular point group: c1
    Full point group: C1

    Geometry (in Angstrom), charge = 0, multiplicity = 1:

       Center              X                  Y                   Z               Mass       
    ------------   -----------------  -----------------  -----------------  -----------------
         O            0.718155638126     1.524171343922     0.941286876430    15.994914619570
         C            0.922926028852     0.534937689628    -0.031802949941    12.000000000000
         C            1.095184612472     1.209570314152    -1.380225617206    12.000000000000
         O            2.367825139123     1.796092288377    -1.409776809358    15.994914619570
         C            0.955181965365     0.235938400731    -2.538934968180    12.000000000000
         O            1.244081153367     0.958852440881    -3.712399031715    15.994914619570
         H            0.777014605615     1.140597654420     1.803016915029     1.007825032230
         H            1.817734494980    -0.042323405744     0.178797351135     1.007825032230
         H            0.075239214655    -0.147511734160    -0.063713173901     1.007825032230
         H            0.330387393112     1.973423328506    -1.478295813408     1.007825032230
         H            2.490720747933     2.184441015656    -2.265223277275     1.007825032230
         H           -0.050917220814    -0.173193832364    -2.575639828218     1.007825032230
         H            1.658505157363    -0.582931021544    -2.411056419898     1.007825032230
         H            1.306438048851     0.376200135539    -4.454080955493     1.007825032230

  Running in c1 symmetry.

  Rotational constants: A =      0.11013  B =      0.02918  C =      0.02386 [cm^-1]
  Rotational constants: A =   3301.75012  B =    874.70918  C =    715.45075 [MHz]
  Nuclear repulsion =  262.667501463986696

  Charge       = 0
  Multiplicity = 1
  Electrons    = 50
  Nalpha       = 25
  Nbeta        = 25

  ==> Algorithm <==

  SCF Algorithm Type is DF.
  DIIS enabled.
  MOM disabled.
  Fractional occupation disabled.
  Guess Type is READ.
  Energy threshold   = 1.00e-08
  Density threshold  = 1.00e-08
  Integral threshold = 1.00e-12

  ==> Primary Basis <==

  Basis Set: 6-31G*
    Blend: 6-31G*
    Number of shells: 52
    Number of basis functions: 106
    Number of Cartesian functions: 106
    Spherical Harmonics?: false
    Max angular momentum: 2

   => Loading Basis Set <=

    Name: (6-31G* AUX)
    Role: JKFIT
    Keyword: DF_BASIS_SCF
    atoms 1, 4, 6 entry O          line   221 file /mnt/nfs/home/nca121/.conda/envs/p4env/share/psi4/basis/cc-pvdz-jkfit.gbs 
    atoms 2-3, 5  entry C          line   121 file /mnt/nfs/home/nca121/.conda/envs/p4env/share/psi4/basis/cc-pvdz-jkfit.gbs 
    atoms 7-14    entry H          line    51 file /mnt/nfs/home/nca121/.conda/envs/p4env/share/psi4/basis/cc-pvdz-jkfit.gbs 

   => Loading Basis Set <=

    Name: 6-31G*
    Role: ORBITAL
    Keyword: BASIS
    atoms 1, 4, 6 entry O          line   145 file /mnt/nfs/home/nca121/.conda/envs/p4env/share/psi4/basis/6-31gs.gbs 
    atoms 2-3, 5  entry C          line   111 file /mnt/nfs/home/nca121/.conda/envs/p4env/share/psi4/basis/6-31gs.gbs 
    atoms 7-14    entry H          line    44 file /mnt/nfs/home/nca121/.conda/envs/p4env/share/psi4/basis/6-31gs.gbs 

  Reading orbitals from file /mnt/storage/nobackup/nca121/scratch_dir/out.mol.19512.180.npy, no projection.

  ==> Integral Setup <==

  DFHelper Memory: AOs need 0.062 GiB; user supplied 0.366 GiB. 
  Using in-core AOs.

  ==> MemDFJK: Density-Fitted J/K Matrices <==

    J tasked:                   Yes
    K tasked:                   Yes
    wK tasked:                   No
    OpenMP threads:               4
    Memory [MiB]:               375
    Algorithm:                 Core
    Schwarz Cutoff:           1E-12
    Mask sparsity (%):       3.2752
    Fitting Condition:        1E-10

   => Auxiliary Basis Set <=

  Basis Set: (6-31G* AUX)
    Blend: CC-PVDZ-JKFIT
    Number of shells: 216
    Number of basis functions: 686
    Number of Cartesian functions: 686
    Spherical Harmonics?: false
    Max angular momentum: 3

  Minimum eigenvalue in the overlap matrix is 2.9860105371E-03.
  Reciprocal condition number of the overlap matrix is 4.1270807046E-04.
    Using symmetric orthogonalization.

  ==> Pre-Iterations <==

  SCF Guess: Orbitals guess was supplied from a previous computation.

   -------------------------------------------------------
    Irrep   Nso     Nmo     Nalpha   Nbeta   Ndocc  Nsocc
   -------------------------------------------------------
     A        106     106      25      25      25       0
   -------------------------------------------------------
    Total     106     106      25      25      25       0
   -------------------------------------------------------

  ==> Iterations <==

                           Total Energy        Delta E     RMS |[F,P]|

   @DF-RHF iter   0:  -342.80100696142489   -3.42801e+02   1.58766e-03 
   @DF-RHF iter   1:  -342.80637763296039   -5.37067e-03   3.07167e-04 DIIS/ADIIS
   @DF-RHF iter   2:  -342.80744124627790   -1.06361e-03   1.21658e-04 DIIS/ADIIS
   @DF-RHF iter   3:  -342.80767418562755   -2.32939e-04   3.64298e-05 DIIS
   @DF-RHF iter   4:  -342.80768838124061   -1.41956e-05   1.33861e-05 DIIS
   @DF-RHF iter   5:  -342.80769116697377   -2.78573e-06   3.43518e-06 DIIS
   @DF-RHF iter   6:  -342.80769133015968   -1.63186e-07   8.73811e-07 DIIS
   @DF-RHF iter   7:  -342.80769133842438   -8.26469e-09   2.11248e-07 DIIS
   @DF-RHF iter   8:  -342.80769133891431   -4.89933e-10   5.30503e-08 DIIS
   @DF-RHF iter   9:  -342.80769133894779   -3.34808e-11   1.92853e-08 DIIS
   @DF-RHF iter  10:  -342.80769133895103   -3.24007e-12   5.71554e-09 DIIS
  Energy and wave function converged.


  ==> Post-Iterations <==

    Orbital Energies [Eh]
    ---------------------

    Doubly Occupied:                                                      

       1A    -20.571549     2A    -20.553887     3A    -20.543205  
       4A    -11.278262     5A    -11.272202     6A    -11.270976  
       7A     -1.385841     8A     -1.364819     9A     -1.343481  
      10A     -1.034119    11A     -0.919290    12A     -0.806181  
      13A     -0.726853    14A     -0.706723    15A     -0.692861  
      16A     -0.647366    17A     -0.604516    18A     -0.595632  
      19A     -0.570532    20A     -0.532115    21A     -0.518331  
      22A     -0.471347    23A     -0.456645    24A     -0.441710  
      25A     -0.427312  

    Virtual:                                                              

      26A      0.214906    27A      0.231784    28A      0.253350  
      29A      0.274553    30A      0.307581    31A      0.322155  
      32A      0.335703    33A      0.347272    34A      0.377035  
      35A      0.413565    36A      0.435044    37A      0.454417  
      38A      0.497276    39A      0.774596    40A      0.782974  
      41A      0.815340    42A      0.829595    43A      0.837171  
      44A      0.862920    45A      0.925601    46A      0.954352  
      47A      1.005023    48A      1.072362    49A      1.096799  
      50A      1.106302    51A      1.128681    52A      1.135069  
      53A      1.147315    54A      1.177442    55A      1.185945  
      56A      1.221413    57A      1.244629    58A      1.265168  
      59A      1.292746    60A      1.308411    61A      1.345359  
      62A      1.358875    63A      1.431504    64A      1.488869  
      65A      1.553956    66A      1.582883    67A      1.619867  
      68A      1.662056    69A      1.711131    70A      1.845008  
      71A      1.871078    72A      1.910892    73A      1.980681  
      74A      2.010406    75A      2.044740    76A      2.064884  
      77A      2.099274    78A      2.122656    79A      2.233632  
      80A      2.250558    81A      2.271080    82A      2.396362  
      83A      2.413980    84A      2.437044    85A      2.464285  
      86A      2.500269    87A      2.544153    88A      2.647869  
      89A      2.701725    90A      2.768816    91A      2.781942  
      92A      2.821695    93A      2.857433    94A      2.922425  
      95A      2.943052    96A      3.030654    97A      3.097494  
      98A      3.240624    99A      3.271596   100A      3.316010  
     101A      4.174814   102A      4.208388   103A      4.281896  
     104A      4.671029   105A      4.761947   106A      4.982129  

    Final Occupation by Irrep:
              A 
    DOCC [    25 ]
    NA   [    25 ]
    NB   [    25 ]

  @DF-RHF Final Energy:  -342.80769133895103

   => Energetics <=

    Nuclear Repulsion Energy =            262.6675014639866959
    One-Electron Energy =                -991.4788718342817901
    Two-Electron Energy =                 386.0036790313440633
    Total Energy =                       -342.8076913389510310

Computation Completed


Properties will be evaluated at   0.000000,   0.000000,   0.000000 [a0]

Properties computed using the SCF density matrix


 Multipole Moments:

 ------------------------------------------------------------------------------------
     Multipole            Electronic (a.u.)      Nuclear  (a.u.)        Total (a.u.)
 ------------------------------------------------------------------------------------

 L = 1.  Multiply by 2.5417464519 to convert [e a0] to [Debye]
 Dipole X            :       -115.4219832          115.0566810           -0.3653022
 Dipole Y            :        -97.4118678           96.0818193           -1.3300485
 Dipole Z            :        128.8857018         -129.2933383           -0.4076365
 Magnitude           :                                                    1.4382775

 ------------------------------------------------------------------------------------

*** tstop() called on sb001.cluster at Tue Oct 24 16:46:37 2023
Module time:
	user time   =       2.72 seconds =       0.05 minutes
	system time =       0.19 seconds =       0.00 minutes
	total time  =          1 seconds =       0.02 minutes
Total time:
	user time   =      15.56 seconds =       0.26 minutes
	system time =       1.31 seconds =       0.02 minutes
	total time  =          5 seconds =       0.08 minutes

*** tstart() called on sb001.cluster
*** at Tue Oct 24 16:46:37 2023


         ------------------------------------------------------------
                                   SCF GRAD                          
                          Rob Parrish, Justin Turney,                
                       Andy Simmonett, and Alex Sokolov              
         ------------------------------------------------------------

  ==> Geometry <==

    Molecular point group: c1
    Full point group: C1

    Geometry (in Angstrom), charge = 0, multiplicity = 1:

       Center              X                  Y                   Z               Mass       
    ------------   -----------------  -----------------  -----------------  -----------------
         O            0.718155638126     1.524171343922     0.941286876430    15.994914619570
         C            0.922926028852     0.534937689628    -0.031802949941    12.000000000000
         C            1.095184612472     1.209570314152    -1.380225617206    12.000000000000
         O            2.367825139123     1.796092288377    -1.409776809358    15.994914619570
         C            0.955181965365     0.235938400731    -2.538934968180    12.000000000000
         O            1.244081153367     0.958852440881    -3.712399031715    15.994914619570
         H            0.777014605615     1.140597654420     1.803016915029     1.007825032230
         H            1.817734494980    -0.042323405744     0.178797351135     1.007825032230
         H            0.075239214655    -0.147511734160    -0.063713173901     1.007825032230
         H            0.330387393112     1.973423328506    -1.478295813408     1.007825032230
         H            2.490720747933     2.184441015656    -2.265223277275     1.007825032230
         H           -0.050917220814    -0.173193832364    -2.575639828218     1.007825032230
         H            1.658505157363    -0.582931021544    -2.411056419898     1.007825032230
         H            1.306438048851     0.376200135539    -4.454080955493     1.007825032230

  Nuclear repulsion =  262.667501463986696

  ==> Basis Set <==

  Basis Set: 6-31G*
    Blend: 6-31G*
    Number of shells: 52
    Number of basis functions: 106
    Number of Cartesian functions: 106
    Spherical Harmonics?: false
    Max angular momentum: 2

  ==> DFJKGrad: Density-Fitted SCF Gradients <==

    Gradient:                    1
    J tasked:                  Yes
    K tasked:                  Yes
    wK tasked:                  No
    OpenMP threads:              4
    Integrals threads:           4
    Memory [MiB]:              375
    Schwarz Cutoff:          1E-12
    Fitting Condition:       1E-10

   => Auxiliary Basis Set <=

  Basis Set: (6-31G* AUX)
    Blend: CC-PVDZ-JKFIT
    Number of shells: 216
    Number of basis functions: 686
    Number of Cartesian functions: 686
    Spherical Harmonics?: false
    Max angular momentum: 3


  -Total Gradient:
     Atom            X                  Y                   Z
    ------   -----------------  -----------------  -----------------
       1        0.000354706582     0.000457392781     0.003335836257
       2       -0.000274021504    -0.001431724021    -0.000273901899
       3       -0.002722801488    -0.003058882586    -0.000359946300
       4        0.001386900418     0.001399528003    -0.002264558851
       5       -0.000988189057     0.000965829251     0.000679440576
       6        0.001139874597    -0.001054665738    -0.002462747121
       7       -0.000411246544     0.000749658481    -0.001060004934
       8       -0.000454663527     0.000645502948    -0.000115868455
       9        0.000557951229     0.000150055352     0.000528982911
      10        0.001359216747    -0.000738016394    -0.000025294262
      11       -0.000049602907    -0.000059225969     0.001203108861
      12        0.000330046898     0.000087351327    -0.000046648765
      13       -0.000281314478     0.000573447128     0.000469789100
      14        0.000053143038     0.001313749438     0.000391812880


*** tstop() called on sb001.cluster at Tue Oct 24 16:46:37 2023
Module time:
	user time   =       1.81 seconds =       0.03 minutes
	system time =       0.10 seconds =       0.00 minutes
	total time  =          0 seconds =       0.00 minutes
Total time:
	user time   =      17.37 seconds =       0.29 minutes
	system time =       1.41 seconds =       0.02 minutes
	total time  =          5 seconds =       0.08 minutes

    			-----------------------------------------

    			 OPTKING 3.0: for geometry optimizations 

    			     By R.A. King, Bethel University     

    			        with contributions from          

    			    A.V. Copan, J. Cayton, A. Heide      

    			-----------------------------------------

    
	                            ===> Fragment 1 <== 

	 Z (Atomic Numbers)          Masses                          Geom                  
	       8.000000            15.994915          1.35711747  2.88026641  1.77877440   
	       6.000000            12.000000          1.74407743  1.01088573 -0.06009887   
	       6.000000            12.000000          2.06959897  2.28575662 -2.60824841   
	       8.000000            15.994915          4.47454103  3.39412252 -2.66409207   
	       6.000000            12.000000          1.80503231  0.44585896 -4.79789174   
	       8.000000            15.994915          2.35097266  1.81196851 -7.01541744   
	       1.000000             1.007825          1.46834480  2.15541719  3.40720817   
	       1.000000             1.007825          3.43502036 -0.07997965  0.33787803   
	       1.000000             1.007825          0.14218151 -0.27875678 -0.12040045   
	       1.000000             1.007825          0.62434169  3.72922962 -2.79357422   
	       1.000000             1.007825          4.70678007  4.12799526 -4.28065161   
	       1.000000             1.007825         -0.09621960 -0.32728891 -4.86725387   
	       1.000000             1.007825          3.13412053 -1.10157998 -4.55623631   
	       1.000000             1.007825          2.46881011  0.71091522 -8.41699315   

	 - Coordinate -           - BOHR/RAD -       - ANG/DEG -
	 H(1,8)           =         3.893189           2.060187
	 H(1,9)           =         3.881026           2.053750
	 H(6,12)          =         3.896124           2.061740
	 H(6,13)          =         3.892256           2.059693
	 R(1,2)           =         2.650618           1.402647
	 R(1,7)           =         1.785938           0.945078
	 R(2,3)           =         2.867809           1.517579
	 R(2,8)           =         2.051258           1.085479
[...]
    H            0.328995565329     1.977786882937    -1.487607527409
    H            2.506319886575     2.176653507003    -2.253502064104
    H           -0.031230078392    -0.198019847039    -2.554574761308
    H            1.690505719557    -0.567959873252    -2.417776141116
    H            1.290709690866     0.375310678356    -4.449752196279


*** tstart() called on sb001.cluster
*** at Tue Oct 24 16:46:44 2023

   => Libint2 <=

    Primary   basis highest AM E, G, H:  5, 4, 3
    Auxiliary basis highest AM E, G, H:  6, 5, 4
    Onebody   basis highest AM E, G, H:  6, 5, 4
    Solid Harmonics ordering:            gaussian
   => Loading Basis Set <=

    Name: 6-31G*
    Role: ORBITAL
    Keyword: BASIS
    atoms 1, 4, 6 entry O          line   145 file /mnt/nfs/home/nca121/.conda/envs/p4env/share/psi4/basis/6-31gs.gbs 
    atoms 2-3, 5  entry C          line   111 file /mnt/nfs/home/nca121/.conda/envs/p4env/share/psi4/basis/6-31gs.gbs 
    atoms 7-14    entry H          line    44 file /mnt/nfs/home/nca121/.conda/envs/p4env/share/psi4/basis/6-31gs.gbs 


         ---------------------------------------------------------
                                   SCF
               by Justin Turney, Rob Parrish, Andy Simmonett
                          and Daniel G. A. Smith
                              RHF Reference
                        4 Threads,    500 MiB Core
         ---------------------------------------------------------

  ==> Geometry <==

    Molecular point group: c1
    Full point group: C1

    Geometry (in Angstrom), charge = 0, multiplicity = 1:

       Center              X                  Y                   Z               Mass       
    ------------   -----------------  -----------------  -----------------  -----------------
         O            0.700914411699     1.519557622687     0.936196595665    15.994914619570
         C            0.906590977320     0.536272365946    -0.038675378290    12.000000000000
         C            1.097464098603     1.215921043998    -1.379834690506    12.000000000000
         O            2.368507274869     1.799291272737    -1.394171064133    15.994914619570
         C            0.965931651515     0.234893020101    -2.534377502734    12.000000000000
         O            1.216853267738     0.962556697430    -3.711444820285    15.994914619570
         H            0.824374112686     1.147227107499     1.796981436348     1.007825032230
         H            1.792027877533    -0.055251037658     0.177211404096     1.007825032230
         H            0.050512523102    -0.135974822744    -0.086720991945     1.007825032230
         H            0.328995565329     1.977786882937    -1.487607527409     1.007825032230
         H            2.506319886575     2.176653507003    -2.253502064104     1.007825032230
         H           -0.031230078392    -0.198019847039    -2.554574761308     1.007825032230
         H            1.690505719557    -0.567959873252    -2.417776141116     1.007825032230
         H            1.290709690866     0.375310678356    -4.449752196279     1.007825032230

  Running in c1 symmetry.

  Rotational constants: A =      0.11011  B =      0.02929  C =      0.02396 [cm^-1]
  Rotational constants: A =   3301.02737  B =    878.13254  C =    718.26426 [MHz]
  Nuclear repulsion =  262.814507567408896

  Charge       = 0
  Multiplicity = 1
  Electrons    = 50
  Nalpha       = 25
  Nbeta        = 25

  ==> Algorithm <==

  SCF Algorithm Type is DF.
  DIIS enabled.
  MOM disabled.
  Fractional occupation disabled.
  Guess Type is SAD.
  Energy threshold   = 1.00e-06
  Density threshold  = 1.00e-06
  Integral threshold = 1.00e-12

  ==> Primary Basis <==

  Basis Set: 6-31G*
    Blend: 6-31G*
    Number of shells: 52
    Number of basis functions: 106
    Number of Cartesian functions: 106
    Spherical Harmonics?: false
    Max angular momentum: 2

   => Loading Basis Set <=

    Name: (6-31G* AUX)
    Role: JKFIT
    Keyword: DF_BASIS_SCF
    atoms 1, 4, 6 entry O          line   221 file /mnt/nfs/home/nca121/.conda/envs/p4env/share/psi4/basis/cc-pvdz-jkfit.gbs 
    atoms 2-3, 5  entry C          line   121 file /mnt/nfs/home/nca121/.conda/envs/p4env/share/psi4/basis/cc-pvdz-jkfit.gbs 
    atoms 7-14    entry H          line    51 file /mnt/nfs/home/nca121/.conda/envs/p4env/share/psi4/basis/cc-pvdz-jkfit.gbs 

  ==> Integral Setup <==

  DFHelper Memory: AOs need 0.062 GiB; user supplied 0.366 GiB. 
  Using in-core AOs.

  ==> MemDFJK: Density-Fitted J/K Matrices <==

    J tasked:                   Yes
    K tasked:                   Yes
    wK tasked:                   No
    OpenMP threads:               4
    Memory [MiB]:               375
    Algorithm:                 Core
    Schwarz Cutoff:           1E-12
    Mask sparsity (%):       3.2574
    Fitting Condition:        1E-10

   => Auxiliary Basis Set <=

  Basis Set: (6-31G* AUX)
    Blend: CC-PVDZ-JKFIT
    Number of shells: 216
    Number of basis functions: 686
    Number of Cartesian functions: 686
    Spherical Harmonics?: false
    Max angular momentum: 3

  Minimum eigenvalue in the overlap matrix is 2.9757267483E-03.
  Reciprocal condition number of the overlap matrix is 4.1079102032E-04.
    Using symmetric orthogonalization.

  ==> Pre-Iterations <==

  SCF Guess: Superposition of Atomic Densities via on-the-fly atomic UHF (no occupation information).

   -------------------------
    Irrep   Nso     Nmo    
   -------------------------
     A        106     106 
   -------------------------
    Total     106     106
   -------------------------

  ==> Iterations <==

                           Total Energy        Delta E     RMS |[F,P]|

   @DF-RHF iter SAD:  -341.90472411414146   -3.41905e+02   0.00000e+00 
   @DF-RHF iter   1:  -342.63507250496275   -7.30348e-01   5.62049e-03 DIIS/ADIIS
   @DF-RHF iter   2:  -342.77028137973957   -1.35209e-01   3.02833e-03 DIIS/ADIIS
   @DF-RHF iter   3:  -342.80588467705223   -3.56033e-02   5.05109e-04 DIIS/ADIIS
   @DF-RHF iter   4:  -342.80772667745339   -1.84200e-03   1.13043e-04 DIIS/ADIIS
   @DF-RHF iter   5:  -342.80782002882154   -9.33514e-05   2.97850e-05 DIIS
   @DF-RHF iter   6:  -342.80782733839271   -7.30957e-06   7.29114e-06 DIIS
   @DF-RHF iter   7:  -342.80782797452866   -6.36136e-07   1.69522e-06 DIIS
   @DF-RHF iter   8:  -342.80782800758629   -3.30576e-08   5.85216e-07 DIIS
  Energy and wave function converged.


  ==> Post-Iterations <==

    Orbital Energies [Eh]
    ---------------------

    Doubly Occupied:                                                      

       1A    -20.571645     2A    -20.553824     3A    -20.544480  
       4A    -11.277886     5A    -11.271689     6A    -11.270591  
       7A     -1.386429     8A     -1.365715     9A     -1.344917  
      10A     -1.034267    11A     -0.918326    12A     -0.806296  
      13A     -0.727695    14A     -0.707246    15A     -0.691753  
      16A     -0.648244    17A     -0.603464    18A     -0.597022  
      19A     -0.571358    20A     -0.533177    21A     -0.519019  
      22A     -0.470490    23A     -0.457187    24A     -0.440298  
      25A     -0.427765  

    Virtual:                                                              

      26A      0.214609    27A      0.231440    28A      0.253527  
      29A      0.273452    30A      0.306592    31A      0.321979  
      32A      0.335675    33A      0.350766    34A      0.375119  
      35A      0.413696    36A      0.438134    37A      0.456837  
      38A      0.497893    39A      0.773953    40A      0.784453  
      41A      0.817970    42A      0.828313    43A      0.839696  
      44A      0.862323    45A      0.925944    46A      0.955052  
      47A      1.004077    48A      1.072620    49A      1.096357  
      50A      1.105669    51A      1.125559    52A      1.134843  
      53A      1.147760    54A      1.177473    55A      1.185424  
      56A      1.221123    57A      1.244987    58A      1.265672  
      59A      1.294741    60A      1.305527    61A      1.341977  
      62A      1.361039    63A      1.431132    64A      1.492882  
      65A      1.553174    66A      1.582435    67A      1.619499  
      68A      1.660178    69A      1.710806    70A      1.845530  
      71A      1.866699    72A      1.915889    73A      1.963206  
      74A      2.013305    75A      2.045677    76A      2.065246  
      77A      2.106327    78A      2.137763    79A      2.229681  
      80A      2.255006    81A      2.275268    82A      2.400132  
      83A      2.413857    84A      2.437032    85A      2.465196  
      86A      2.507016    87A      2.543267    88A      2.641266  
      89A      2.705332    90A      2.761740    91A      2.783290  
      92A      2.827451    93A      2.860926    94A      2.924684  
      95A      2.946594    96A      3.035235    97A      3.099009  
      98A      3.244551    99A      3.271860   100A      3.314742  
     101A      4.171539   102A      4.211496   103A      4.288449  
     104A      4.674892   105A      4.761737   106A      4.981717  

    Final Occupation by Irrep:
              A 
    DOCC [    25 ]
    NA   [    25 ]
    NB   [    25 ]

  @DF-RHF Final Energy:  -342.80782800758629

   => Energetics <=

    Nuclear Repulsion Energy =            262.8145075674088957
    One-Electron Energy =                -991.7631654721641326
    Two-Electron Energy =                 386.1408298971689419
    Total Energy =                       -342.8078280075862949

Computation Completed


Properties will be evaluated at   0.000000,   0.000000,   0.000000 [a0]

Properties computed using the HF density matrix


 Multipole Moments:

 ------------------------------------------------------------------------------------
     Multipole            Electronic (a.u.)      Nuclear  (a.u.)        Total (a.u.)
 ------------------------------------------------------------------------------------

 L = 1.  Multiply by 2.5417464519 to convert [e a0] to [Debye]
 Dipole X            :       -114.7277769          114.4462272           -0.2815497
 Dipole Y            :        -97.5008696           96.1748444           -1.3260252
 Dipole Z            :        128.7502812         -129.1597960           -0.4095148
 Magnitude           :                                                    1.4160916

 L = 2.  Multiply by 1.3450342976 to convert [e a0^2] to [Debye ang]
 Quadrupole XX       :       -362.9092529          332.8909866          -30.0182664
 Quadrupole XY       :       -255.7176159          252.6365381           -3.0810778
 Quadrupole XZ       :        339.4306467         -340.5928885           -1.1622418
 Quadrupole YY       :       -293.0922572          261.4065917          -31.6856655
 Quadrupole YZ       :        204.0280255         -202.1391933            1.8888323
 Quadrupole ZZ       :       -823.3107398          805.1399663          -18.1707735
 Traceless XX        :        130.1948304         -133.5881950           -3.3933646
 Traceless YY        :        200.0118261         -205.0725898           -5.0607637
 Traceless ZZ        :       -330.2066565          338.6607848            8.4541283

 ------------------------------------------------------------------------------------
  Mulliken Charges: (a.u.)
   Center  Symbol    Alpha    Beta     Spin     Total
       1     O     4.36784  4.36784  0.00000 -0.73568
       2     C     2.99512  2.99512  0.00000  0.00976
       3     C     2.92805  2.92805  0.00000  0.14390
       4     O     4.37670  4.37670  0.00000 -0.75341
       5     C     3.00521  3.00521  0.00000 -0.01041
       6     O     4.38014  4.38014  0.00000 -0.76028
       7     H     0.27935  0.27935  0.00000  0.44131
       8     H     0.42263  0.42263  0.00000  0.15474
       9     H     0.43279  0.43279  0.00000  0.13443
      10     H     0.41244  0.41244  0.00000  0.17512
      11     H     0.27063  0.27063  0.00000  0.45874
      12     H     0.42736  0.42736  0.00000  0.14528
      13     H     0.42591  0.42591  0.00000  0.14818
      14     H     0.27584  0.27584  0.00000  0.44832

   Total alpha = 25.00000, Total beta = 25.00000, Total charge = -0.00000

  Lowdin Charges: (a.u.)
   Center  Symbol    Alpha    Beta     Spin     Total
       1     O     4.25868  4.25868  0.00000 -0.51737
       2     C     3.04183  3.04183  0.00000 -0.08366
       3     C     2.98265  2.98265  0.00000  0.03471
       4     O     4.25773  4.25773  0.00000 -0.51546
       5     C     3.05071  3.05071  0.00000 -0.10143
       6     O     4.26480  4.26480  0.00000 -0.52961
       7     H     0.32110  0.32110  0.00000  0.35780
       8     H     0.43527  0.43527  0.00000  0.12947
       9     H     0.44160  0.44160  0.00000  0.11680
      10     H     0.43276  0.43276  0.00000  0.13449
      11     H     0.31807  0.31807  0.00000  0.36386
      12     H     0.43693  0.43693  0.00000  0.12614
      13     H     0.43792  0.43792  0.00000  0.12416
      14     H     0.31995  0.31995  0.00000  0.36010

  Total alpha = 25.00000, Total beta = 25.00000, Total charge = -0.00000
  ==> Computing MBIS Charges <==

  Electron Count from Grid (Expected Number): 50.00004 (50.00000)
  Difference:  0.00004

  MBIS Charges: (a.u.)
   Center  Symbol  Z      Pop.       Charge
      1       O    8    8.677489   -0.677489
      2       C    6    5.852403    0.147597
      3       C    6    5.824504    0.175496
      4       O    8    8.683563   -0.683563
      5       C    6    5.903554    0.096446
      6       O    8    8.701798   -0.701798
      7       H    1    0.549273    0.450727
      8       H    1    0.948688    0.051312
      9       H    1    0.968263    0.031737
     10       H    1    0.924659    0.075341
     11       H    1    0.527388    0.472612
     12       H    1    0.952683    0.047317
     13       H    1    0.947820    0.052180
     14       H    1    0.537958    0.462042

  MBIS Dipoles: [e a0]
   Center  Symbol  Z        X           Y           Z
      1       O    8    0.016296   -0.012104   -0.108825
      2       C    6   -0.011056    0.133731    0.097173
      3       C    6    0.143407    0.095986    0.013388
      4       O    8   -0.075956   -0.054867    0.060636
      5       C    6    0.032876    0.086452   -0.132561
      6       O    8   -0.028807   -0.002257    0.105302
      7       H    1    0.002907   -0.006489    0.016488
      8       H    1    0.057160   -0.019664    0.003330
      9       H    1   -0.050526   -0.027628   -0.006836
     10       H    1   -0.037401    0.038799   -0.000552
     11       H    1    0.001410    0.006157   -0.016798
     12       H    1   -0.055641   -0.013251   -0.000437
     13       H    1    0.045166   -0.032768    0.013492
     14       H    1    0.001287   -0.010817   -0.013475

  MBIS Quadrupoles: [e a0^2]
   Center  Symbol  Z      XX        XY        XZ        YY        YZ        ZZ
      1       O    8   -4.4982   -0.0140   -0.0051   -4.4237    0.0019   -4.2952
      2       C    6   -4.0273    0.0077   -0.0101   -4.0702    0.0838   -4.1595
      3       C    6   -3.9674    0.0046    0.0151   -4.0677    0.0209   -4.0540
      4       O    8   -4.3993    0.0678   -0.0306   -4.4703   -0.0490   -4.3561
      5       C    6   -4.1676   -0.0036    0.0055   -4.2395   -0.1044   -4.2111
      6       O    8   -4.5508   -0.0089   -0.0315   -4.4647    0.0205   -4.3522
      7       H    1   -0.2414   -0.0025   -0.0002   -0.2313    0.0017   -0.2386
      8       H    1   -0.5610    0.0050   -0.0060   -0.5481    0.0098   -0.5401
      9       H    1   -0.5866   -0.0087   -0.0051   -0.5721    0.0090   -0.5596
     10       H    1   -0.5113    0.0148   -0.0012   -0.5251    0.0037   -0.5014
     11       H    1   -0.2176    0.0027    0.0027   -0.2248   -0.0010   -0.2242
     12       H    1   -0.5712   -0.0036   -0.0019   -0.5568   -0.0067   -0.5416
     13       H    1   -0.5593    0.0092   -0.0034   -0.5565   -0.0066   -0.5342
     14       H    1   -0.2330    0.0012   -0.0011   -0.2237   -0.0032   -0.2291

  MBIS Octupoles: [e a0^3]
   Center  Symbol  Z      XXX       XXY       XXZ       XYY       XYZ       XZZ       YYY       YYZ       YZZ       ZZZ
      1       O    8    0.0802   -0.0359   -0.1073   -0.0232   -0.0326   -0.0257    0.0906    0.0597    0.1967   -0.2090
      2       C    6    0.0014    0.2646    0.0201    0.0400    0.0664   -0.0039    0.3418   -0.0698   -0.1936    0.3040
      3       C    6    0.0048   -0.1269    0.0691    0.1121    0.0042    0.1368    0.2057    0.0962    0.3703   -0.0640
      4       O    8    0.1243    0.1417    0.0217   -0.0204   -0.0051   -0.1174   -0.1034    0.0359   -0.0973    0.2524
      5       C    6    0.1486    0.1929   -0.0786   -0.0343    0.0431   -0.0490    0.2467   -0.1225   -0.2582   -0.1740
      6       O    8   -0.1237   -0.0540    0.0736   -0.0296   -0.0597    0.0351    0.0173    0.0182    0.2177    0.0324
      7       H    1    0.0062   -0.0050    0.0066   -0.0008   -0.0001    0.0011   -0.0083    0.0069   -0.0026    0.0137
      8       H    1    0.0550    0.0116   -0.0048    0.0203   -0.0016    0.0176    0.0134   -0.0025   -0.0038   -0.0076
      9       H    1   -0.0429    0.0078   -0.0061   -0.0161    0.0075   -0.0146   -0.0010   -0.0044   -0.0064   -0.0054
     10       H    1   -0.0195    0.0005    0.0044   -0.0061    0.0003   -0.0092    0.0247    0.0043    0.0135    0.0019
     11       H    1   -0.0005    0.0026   -0.0057   -0.0021    0.0013    0.0026    0.0057   -0.0077    0.0029   -0.0132
     12       H    1   -0.0378    0.0106   -0.0010   -0.0207   -0.0039   -0.0126    0.0111   -0.0041   -0.0011   -0.0040
     13       H    1    0.0488    0.0060    0.0084    0.0131    0.0039    0.0115   -0.0068    0.0021   -0.0062    0.0203
     14       H    1    0.0002   -0.0074   -0.0047    0.0005   -0.0006   -0.0002   -0.0134   -0.0053   -0.0032   -0.0112

  MBIS Radial Moments:
   Center  Symbol  Z      [a0^2]      [a0^3]      [a0^4]      
      1       O    8   13.217104   25.316168   57.907826
      2       C    6   12.256978   29.188225   83.868881
      3       C    6   12.089136   28.713106   82.457842
      4       O    8   13.225639   25.351522   58.103334
      5       C    6   12.618266   30.351383   88.052366
      6       O    8   13.367724   25.758426   59.332856
      7       H    1    0.711363    1.146091    2.203259
      8       H    1    1.649124    3.097556    6.979751
      9       H    1    1.718301    3.264635    7.437876
     10       H    1    1.537824    2.815662    6.188984
     11       H    1    0.666514    1.061832    2.021058
     12       H    1    1.669664    3.151745    7.134566
     13       H    1    1.649978    3.102097    6.997039
     14       H    1    0.685804    1.095091    2.086291

  MBIS Valence Widths: [a0]
   Center  Symbol  Z     Width
      1       O    8    0.398063
      2       C    6    0.496188
      3       C    6    0.494197
      4       O    8    0.397951
      5       C    6    0.500481
      6       O    8    0.399505
      7       H    1    0.331699
      8       H    1    0.383894
      9       H    1    0.387613
     10       H    1    0.376227
     11       H    1    0.327672
     12       H    1    0.385259
     13       H    1    0.384120
     14       H    1    0.329252

 Field computed on the grid and written to grid_field.dat

 Electrostatic potential to be computed on the grid and written to grid_esp.dat

*** tstop() called on sb001.cluster at Tue Oct 24 16:47:14 2023
Module time:
	user time   =     117.32 seconds =       1.96 minutes
	system time =       4.42 seconds =       0.07 minutes
	total time  =         30 seconds =       0.50 minutes
Total time:
	user time   =     158.30 seconds =       2.64 minutes
	system time =       7.47 seconds =       0.12 minutes
	total time  =         42 seconds =       0.70 minutes

    Psi4 stopped on: Tuesday, 24 October 2023 04:47PM
    Psi4 wall time for execution: 0:00:43.54

*** Psi4 exiting successfully. Buy a developer a beer!
