 Entering Gaussian System, Link 0=/mnt/storage/apps/eb/software/gaussian/09/g09
No executable for file l1.exe.

Search path GAUSS_EXEDIR is ""

