
Host: login02.cluster

Timers On : Wed Oct  4 14:53:07 2023
Timers Off: Wed Oct  4 14:53:10 2023

Wall Time:        2.90 seconds

                                                       Time (seconds)
Module                                       User      System        Wall        Calls

--------------------------------------------------------------------------------------

**************************************************************************************
