 Entering Gaussian System, Link 0=g09
 Initial command:
 /mnt/storage/apps/eb/software/gaussian/09/l1.exe "/scratch/nca121/18446470/Gau-847.inp" -scrdir="/scratch/nca121/18446470/"
 Entering Link 1 = /mnt/storage/apps/eb/software/gaussian/09/l1.exe PID=       848.
  
 Copyright (c) 1988,1990,1992,1993,1995,1998,2003,2009,2013,
            Gaussian, Inc.  All Rights Reserved.
  
 This is part of the Gaussian(R) 09 program.  It is based on
 the Gaussian(R) 03 system (copyright 2003, Gaussian, Inc.),
 the Gaussian(R) 98 system (copyright 1998, Gaussian, Inc.),
 the Gaussian(R) 94 system (copyright 1995, Gaussian, Inc.),
 the Gaussian 92(TM) system (copyright 1992, Gaussian, Inc.),
 the Gaussian 90(TM) system (copyright 1990, Gaussian, Inc.),
 the Gaussian 88(TM) system (copyright 1988, Gaussian, Inc.),
 the Gaussian 86(TM) system (copyright 1986, Carnegie Mellon
 University), and the Gaussian 82(TM) system (copyright 1983,
 Carnegie Mellon University). Gaussian is a federally registered
 trademark of Gaussian, Inc.
  
 This software contains proprietary and confidential information,
 including trade secrets, belonging to Gaussian, Inc.
  
 This software is provided under written license and may be
 used, copied, transmitted, or stored only in accord with that
 written license.
  
 The following legend is applicable only to US Government
 contracts under FAR:
  
                    RESTRICTED RIGHTS LEGEND
  
 Use, reproduction and disclosure by the US Government is
 subject to restrictions as set forth in subparagraphs (a)
 and (c) of the Commercial Computer Software - Restricted
 Rights clause in FAR 52.227-19.
  
 Gaussian, Inc.
 340 Quinnipiac St., Bldg. 40, Wallingford CT 06492
  
  
 ---------------------------------------------------------------
 Warning -- This program may not be used in any manner that
 competes with the business of Gaussian, Inc. or will provide
 assistance to any competitor of Gaussian, Inc.  The licensee
 of this program is prohibited from giving any competitor of
 Gaussian, Inc. access to this program.  By using this program,
 the user acknowledges that Gaussian, Inc. is engaged in the
 business of creating and licensing software in the field of
 computational chemistry and represents and warrants to the
 licensee that it is not a competitor of Gaussian, Inc. and that
 it will not use this program in any manner prohibited above.
 ---------------------------------------------------------------
  

 Cite this work as:
 Gaussian 09, Revision D.01,
 M. J. Frisch, G. W. Trucks, H. B. Schlegel, G. E. Scuseria, 
 M. A. Robb, J. R. Cheeseman, G. Scalmani, V. Barone, B. Mennucci, 
 G. A. Petersson, H. Nakatsuji, M. Caricato, X. Li, H. P. Hratchian, 
 A. F. Izmaylov, J. Bloino, G. Zheng, J. L. Sonnenberg, M. Hada, 
 M. Ehara, K. Toyota, R. Fukuda, J. Hasegawa, M. Ishida, T. Nakajima, 
 Y. Honda, O. Kitao, H. Nakai, T. Vreven, J. A. Montgomery, Jr., 
 J. E. Peralta, F. Ogliaro, M. Bearpark, J. J. Heyd, E. Brothers, 
 K. N. Kudin, V. N. Staroverov, T. Keith, R. Kobayashi, J. Normand, 
 K. Raghavachari, A. Rendell, J. C. Burant, S. S. Iyengar, J. Tomasi, 
 M. Cossi, N. Rega, J. M. Millam, M. Klene, J. E. Knox, J. B. Cross, 
 V. Bakken, C. Adamo, J. Jaramillo, R. Gomperts, R. E. Stratmann, 
 O. Yazyev, A. J. Austin, R. Cammi, C. Pomelli, J. W. Ochterski, 
 R. L. Martin, K. Morokuma, V. G. Zakrzewski, G. A. Voth, 
 P. Salvador, J. J. Dannenberg, S. Dapprich, A. D. Daniels, 
 O. Farkas, J. B. Foresman, J. V. Ortiz, J. Cioslowski, 
 and D. J. Fox, Gaussian, Inc., Wallingford CT, 2013.
 
 ******************************************
 Gaussian 09:  ES64L-G09RevD.01 24-Apr-2013
                20-Sep-2023 
 ******************************************
 --------------------------------------------
 #P hf/6-31G* scf(qc) opt(tight,maxcycle=100)
 --------------------------------------------
 1/6=100,7=10,18=20,19=15,38=1/1,3;
 2/9=110,12=2,17=6,18=5,40=1/2;
 3/5=1,6=6,7=1,11=9,16=1,25=1,30=1,71=1/1,2,3;
 4//1;
 5/5=2,8=3,38=5/8;
 6/7=2,8=2,9=2,10=2,28=1/1;
 7//1,2,3,16;
 1/6=100,7=10,18=20,19=15/3(2);
 2/9=110/2;
 99//99;
 2/9=110/2;
 3/5=1,6=6,7=1,11=9,16=1,25=1,30=1,71=1/1,2,3;
 4/5=5,16=3,69=1/1;
 5/5=2,8=3,38=5/8;
 7//1,2,3,16;
 1/6=100,7=10,18=20,19=15/3(-5);
 2/9=110/2;
 6/7=2,8=2,9=2,10=2,19=2,28=1/1;
 99/9=1/99;
 Leave Link    1 at Wed Sep 20 14:30:44 2023, MaxMem=           0 cpu:         0.0
 (Enter /mnt/storage/apps/eb/software/gaussian/09/l101.exe)
 ------------------------------
 Gaussian input prepared by ASE
 ------------------------------
 Symbolic Z-matrix:
 Charge =  0 Multiplicity = 1
 O                     2.21414   0.25934   0.61919 
 C                     1.16853   0.2191   -0.29813 
 C                    -0.08803  -0.32305   0.37246 
 O                     0.09546  -1.60066   0.86455 
 C                    -1.21733  -0.26052  -0.65613 
 O                    -1.31004   1.06911  -1.08008 
 H                     2.14947   1.09265   1.11643 
 H                     1.47395  -0.39749  -1.15322 
 H                     0.95531   1.26446  -0.59965 
 H                    -0.33394   0.34192   1.22368 
 H                    -0.43073  -1.78063   1.68971 
 H                    -0.93006  -0.84811  -1.55243 
 H                    -2.15861  -0.65095  -0.25933 
 H                    -1.58813   1.61484  -0.28706 
 
 NAtoms=     14 NQM=       14 NQMF=       0 NMMI=      0 NMMIF=      0
                NMic=       0 NMicF=      0.
                    Isotopes and Nuclear Properties:
 (Nuclear quadrupole moments (NQMom) in fm**2, nuclear magnetic moments (NMagM)
  in nuclear magnetons)

  Atom         1           2           3           4           5           6           7           8           9          10
 IAtWgt=          16          12          12          16          12          16           1           1           1           1
 AtmWgt=  15.9949146  12.0000000  12.0000000  15.9949146  12.0000000  15.9949146   1.0078250   1.0078250   1.0078250   1.0078250
 NucSpn=           0           0           0           0           0           0           1           1           1           1
 AtZEff=   0.0000000   0.0000000   0.0000000   0.0000000   0.0000000   0.0000000   0.0000000   0.0000000   0.0000000   0.0000000
 NQMom=    0.0000000   0.0000000   0.0000000   0.0000000   0.0000000   0.0000000   0.0000000   0.0000000   0.0000000   0.0000000
 NMagM=    0.0000000   0.0000000   0.0000000   0.0000000   0.0000000   0.0000000   2.7928460   2.7928460   2.7928460   2.7928460
 AtZNuc=   8.0000000   6.0000000   6.0000000   8.0000000   6.0000000   8.0000000   1.0000000   1.0000000   1.0000000   1.0000000

  Atom        11          12          13          14
 IAtWgt=           1           1           1           1
 AtmWgt=   1.0078250   1.0078250   1.0078250   1.0078250
 NucSpn=           1           1           1           1
 AtZEff=   0.0000000   0.0000000   0.0000000   0.0000000
 NQMom=    0.0000000   0.0000000   0.0000000   0.0000000
 NMagM=    2.7928460   2.7928460   2.7928460   2.7928460
 AtZNuc=   1.0000000   1.0000000   1.0000000   1.0000000
 Leave Link  101 at Wed Sep 20 14:30:44 2023, MaxMem=    33554432 cpu:         0.0
 (Enter /mnt/storage/apps/eb/software/gaussian/09/l103.exe)

 GradGradGradGradGradGradGradGradGradGradGradGradGradGradGradGradGradGrad
 Berny optimization.
 Initialization pass.
                           ----------------------------
                           !    Initial Parameters    !
                           ! (Angstroms and Degrees)  !
 --------------------------                            --------------------------
 ! Name  Definition              Value          Derivative Info.                !
 --------------------------------------------------------------------------------
 ! R1    R(1,2)                  1.3915         estimate D2E/DX2                !
 ! R2    R(1,7)                  0.9725         estimate D2E/DX2                !
 ! R3    R(2,3)                  1.524          estimate D2E/DX2                !
 ! R4    R(2,8)                  1.0976         estimate D2E/DX2                !
 ! R5    R(2,9)                  1.1087         estimate D2E/DX2                !
 ! R6    R(3,4)                  1.3813         estimate D2E/DX2                !
 ! R7    R(3,5)                  1.5288         estimate D2E/DX2                !
 ! R8    R(3,10)                 1.1078         estimate D2E/DX2                !
 ! R9    R(4,11)                 0.9951         estimate D2E/DX2                !
 ! R10   R(5,6)                  1.3987         estimate D2E/DX2                !
 ! R11   R(5,12)                 1.1096         estimate D2E/DX2                !
 ! R12   R(5,13)                 1.0936         estimate D2E/DX2                !
 ! R13   R(6,14)                 1.002          estimate D2E/DX2                !
 ! A1    A(2,1,7)              108.1707         estimate D2E/DX2                !
 ! A2    A(1,2,3)              109.8627         estimate D2E/DX2                !
 ! A3    A(1,2,8)              108.707          estimate D2E/DX2                !
 ! A4    A(1,2,9)              107.2492         estimate D2E/DX2                !
 ! A5    A(3,2,8)              111.8638         estimate D2E/DX2                !
 ! A6    A(3,2,9)              107.2485         estimate D2E/DX2                !
 ! A7    A(8,2,9)              111.7984         estimate D2E/DX2                !
 ! A8    A(2,3,4)              112.1018         estimate D2E/DX2                !
 ! A9    A(2,3,5)              107.3649         estimate D2E/DX2                !
 ! A10   A(2,3,10)             107.9141         estimate D2E/DX2                !
 ! A11   A(4,3,5)              112.0635         estimate D2E/DX2                !
 ! A12   A(4,3,10)             108.1157         estimate D2E/DX2                !
 ! A13   A(5,3,10)             109.1754         estimate D2E/DX2                !
 ! A14   A(3,4,11)             113.1073         estimate D2E/DX2                !
 ! A15   A(3,5,6)              106.9646         estimate D2E/DX2                !
 ! A16   A(3,5,12)             109.3044         estimate D2E/DX2                !
 ! A17   A(3,5,13)             112.1532         estimate D2E/DX2                !
 ! A18   A(6,5,12)             106.0062         estimate D2E/DX2                !
 ! A19   A(6,5,13)             113.0994         estimate D2E/DX2                !
 ! A20   A(12,5,13)            109.0801         estimate D2E/DX2                !
 ! A21   A(5,6,14)             107.2335         estimate D2E/DX2                !
 ! D1    D(7,1,2,3)            -84.8025         estimate D2E/DX2                !
 ! D2    D(7,1,2,8)            152.4886         estimate D2E/DX2                !
 ! D3    D(7,1,2,9)             31.4474         estimate D2E/DX2                !
 ! D4    D(1,2,3,4)            -59.9968         estimate D2E/DX2                !
 ! D5    D(1,2,3,5)            176.5143         estimate D2E/DX2                !
 ! D6    D(1,2,3,10)            58.9484         estimate D2E/DX2                !
 ! D7    D(8,2,3,4)             60.8274         estimate D2E/DX2                !
 ! D8    D(8,2,3,5)            -62.6615         estimate D2E/DX2                !
 ! D9    D(8,2,3,10)           179.7726         estimate D2E/DX2                !
 ! D10   D(9,2,3,4)           -176.2471         estimate D2E/DX2                !
 ! D11   D(9,2,3,5)             60.2639         estimate D2E/DX2                !
 ! D12   D(9,2,3,10)           -57.302          estimate D2E/DX2                !
 ! D13   D(2,3,4,11)           147.3559         estimate D2E/DX2                !
 ! D14   D(5,3,4,11)           -91.835          estimate D2E/DX2                !
 ! D15   D(10,3,4,11)           28.5296         estimate D2E/DX2                !
 ! D16   D(2,3,5,6)            -56.4902         estimate D2E/DX2                !
 ! D17   D(2,3,5,12)            57.8603         estimate D2E/DX2                !
 ! D18   D(2,3,5,13)           178.9637         estimate D2E/DX2                !
 ! D19   D(4,3,5,6)            179.9974         estimate D2E/DX2                !
 ! D20   D(4,3,5,12)           -65.6521         estimate D2E/DX2                !
 ! D21   D(4,3,5,13)            55.4513         estimate D2E/DX2                !
 ! D22   D(10,3,5,6)            60.2507         estimate D2E/DX2                !
 ! D23   D(10,3,5,12)          174.6012         estimate D2E/DX2                !
 ! D24   D(10,3,5,13)          -64.2954         estimate D2E/DX2                !
 ! D25   D(3,5,6,14)           -64.6152         estimate D2E/DX2                !
 ! D26   D(12,5,6,14)          178.8285         estimate D2E/DX2                !
 ! D27   D(13,5,6,14)           59.3518         estimate D2E/DX2                !
 --------------------------------------------------------------------------------
 Trust Radius=3.00D-01 FncErr=1.00D-07 GrdErr=1.00D-07
 Number of steps in this run=    100 maximum allowed number of steps=    100.
 GradGradGradGradGradGradGradGradGradGradGradGradGradGradGradGradGradGrad

 Leave Link  103 at Wed Sep 20 14:30:44 2023, MaxMem=    33554432 cpu:         0.0
 (Enter /mnt/storage/apps/eb/software/gaussian/09/l202.exe)
                          Input orientation:                          
 ---------------------------------------------------------------------
 Center     Atomic      Atomic             Coordinates (Angstroms)
 Number     Number       Type             X           Y           Z
 ---------------------------------------------------------------------
      1          8           0        2.214142    0.259338    0.619187
      2          6           0        1.168533    0.219097   -0.298130
      3          6           0       -0.088032   -0.323051    0.372460
      4          8           0        0.095459   -1.600659    0.864548
      5          6           0       -1.217325   -0.260522   -0.656130
      6          8           0       -1.310035    1.069109   -1.080077
      7          1           0        2.149465    1.092654    1.116432
      8          1           0        1.473952   -0.397494   -1.153216
      9          1           0        0.955305    1.264460   -0.599647
     10          1           0       -0.333935    0.341919    1.223684
     11          1           0       -0.430730   -1.780634    1.689710
     12          1           0       -0.930058   -0.848110   -1.552429
     13          1           0       -2.158609   -0.650947   -0.259328
     14          1           0       -1.588133    1.614842   -0.287063
 ---------------------------------------------------------------------
                    Distance matrix (angstroms):
                    1          2          3          4          5
     1  O    0.000000
     2  C    1.391542   0.000000
     3  C    2.387479   1.523998   0.000000
     4  O    2.829949   2.411394   1.381341   0.000000
     5  C    3.697520   2.459780   1.528794   2.414918   0.000000
     6  O    3.995379   2.734458   2.353989   3.589518   1.398658
     7  H    0.972549   1.930367   2.750292   3.396516   4.038358
     8  H    2.029956   1.097560   2.184725   2.723825   2.740224
     9  H    2.020024   1.108676   2.133948   3.330482   2.655011
    10  H    2.620102   2.142058   1.107807   2.021625   2.162640
    11  H    3.507542   3.241616   1.994276   0.995067   2.903866
    12  H    3.978486   2.667636   2.165616   2.731262   1.109565
    13  H    4.552072   3.439238   2.189512   2.691816   1.093572
    14  H    4.137146   3.089892   2.537854   3.807904   1.946972
                    6          7          8          9         10
     6  O    0.000000
     7  H    4.097969   0.000000
     8  H    3.147516   2.797885   0.000000
     9  H    2.323949   2.097728   1.826889   0.000000
    10  H    2.605550   2.596610   3.076498   2.416145   0.000000
    11  H    4.070127   3.904080   3.690951   4.053991   2.175266
    12  H    2.010778   4.513629   2.478243   2.987531   3.078690
    13  H    2.086217   4.846892   3.749503   3.671656   2.552360
    14  H    1.002015   4.026427   3.765114   2.586417   2.340022
                   11         12         13         14
    11  H    0.000000
    12  H    3.410336   0.000000
    13  H    2.839103   1.794525   0.000000
    14  H    4.095909   2.846111   2.336667   0.000000
 Stoichiometry    C3H8O3
 Framework group  C1[X(C3H8O3)]
 Deg. of freedom    36
 Full point group                 C1      NOp   1
 Largest Abelian subgroup         C1      NOp   1
 Largest concise Abelian subgroup C1      NOp   1
                         Standard orientation:                         
 ---------------------------------------------------------------------
 Center     Atomic      Atomic             Coordinates (Angstroms)
 Number     Number       Type             X           Y           Z
 ---------------------------------------------------------------------
      1          8           0        2.080245   -0.723232   -0.075674
      2          6           0        0.768425   -0.720423    0.388556
      3          6           0        0.000119    0.437362   -0.237392
      4          8           0        0.562667    1.660957    0.069946
      5          6           0       -1.448467    0.335024    0.240451
      6          8           0       -1.909260   -0.934637   -0.122695
      7          1           0        2.101001   -1.199707   -0.923254
      8          1           0        0.782865   -0.656528    1.484159
      9          1           0        0.293308   -1.658452    0.037090
     10          1           0        0.030151    0.311025   -1.337561
     11          1           0        0.458847    2.332205   -0.657244
     12          1           0       -1.471775    0.363339    1.349410
     13          1           0       -2.070021    1.145184   -0.150971
     14          1           0       -1.914057   -0.973546   -1.123943
 ---------------------------------------------------------------------
 Rotational constants (GHZ):      5.0100798      2.6249946      1.8762213
 Leave Link  202 at Wed Sep 20 14:30:44 2023, MaxMem=    33554432 cpu:         0.0
 (Enter /mnt/storage/apps/eb/software/gaussian/09/l301.exe)
 Standard basis: 6-31G(d) (6D, 7F)
 Ernie: Thresh=  0.10000D-02 Tol=  0.10000D-05 Strict=F.
 There are   106 symmetry adapted cartesian basis functions of A   symmetry.
 There are   106 symmetry adapted basis functions of A   symmetry.
   106 basis functions,   200 primitive gaussians,   106 cartesian basis functions
    25 alpha electrons       25 beta electrons
       nuclear repulsion energy       264.2445419805 Hartrees.
 IExCor=    0 DFT=F Ex=HF Corr=None ExCW=0 ScaHFX=  1.000000
 ScaDFX=  1.000000  1.000000  1.000000  1.000000 ScalE2=  1.000000  1.000000
 IRadAn=      0 IRanWt=     -1 IRanGd=            0 ICorTp=0 IEmpDi=  4
 NAtoms=   14 NActive=   14 NUniq=   14 SFac= 1.00D+00 NAtFMM=   60 NAOKFM=F Big=F
 Integral buffers will be    131072 words long.
 Raffenetti 1 integral format.
 Two-electron integral symmetry is turned on.
 Leave Link  301 at Wed Sep 20 14:30:44 2023, MaxMem=    33554432 cpu:         0.0
 (Enter /mnt/storage/apps/eb/software/gaussian/09/l302.exe)
 NPDir=0 NMtPBC=     1 NCelOv=     1 NCel=       1 NClECP=     1 NCelD=      1
         NCelK=      1 NCelE2=     1 NClLst=     1 CellRange=     0.0.
 One-electron integrals computed using PRISM.
 NBasis=   106 RedAO= T EigKep=  3.04D-03  NBF=   106
 NBsUse=   106 1.00D-06 EigRej= -1.00D+00 NBFU=   106
 Leave Link  302 at Wed Sep 20 14:30:44 2023, MaxMem=    33554432 cpu:         0.1
 (Enter /mnt/storage/apps/eb/software/gaussian/09/l303.exe)
 DipDrv:  MaxL=1.
 Leave Link  303 at Wed Sep 20 14:30:44 2023, MaxMem=    33554432 cpu:         0.0
 (Enter /mnt/storage/apps/eb/software/gaussian/09/l401.exe)
 ExpMin= 1.61D-01 ExpMax= 5.48D+03 ExpMxC= 8.25D+02 IAcc=1 IRadAn=         1 AccDes= 0.00D+00
 Harris functional with IExCor=  205 and IRadAn=       1 diagonalized for initial guess.
 HarFok:  IExCor=  205 AccDes= 0.00D+00 IRadAn=         1 IDoV= 1 UseB2=F ITyADJ=14
 ICtDFT=  3500011 ScaDFX=  1.000000  1.000000  1.000000  1.000000
 FoFCou: FMM=F IPFlag=           0 FMFlag=      100000 FMFlg1=           0
         NFxFlg=           0 DoJE=T BraDBF=F KetDBF=T FulRan=T
         wScrn=  0.000000 ICntrl=     500 IOpCl=  0 I1Cent=   200000004 NGrid=           0
         NMat0=    1 NMatS0=      1 NMatT0=    0 NMatD0=    1 NMtDS0=    0 NMtDT0=    0
 Petite list used in FoFCou.
 Harris En= -343.190062602118    
 JPrj=0 DoOrth=F DoCkMO=F.
 Leave Link  401 at Wed Sep 20 14:30:44 2023, MaxMem=    33554432 cpu:         0.3
 (Enter /mnt/storage/apps/eb/software/gaussian/09/l508.exe)
 Direct SCF.
 Tight linear equation convergence will be used.
 RHF wavefunction.
 Quadratic Convergence SCF Method.
 Line search only if initial step raises energy.
 Integral symmetry usage will be decided dynamically.
 ReadGW:  IGet=1 IStart=         402 Next=         402 LGW=           0.
 Keep R1 ints in memory in canonical form, NReq=17056709.
 FoFCou: FMM=F IPFlag=           0 FMFlag=           0 FMFlg1=           0
         NFxFlg=           0 DoJE=F BraDBF=F KetDBF=F FulRan=T
         wScrn=  0.000000 ICntrl=     600 IOpCl=  0 I1Cent=           0 NGrid=           0
         NMat0=    1 NMatS0=   5671 NMatT0=    0 NMatD0=    1 NMtDS0=    0 NMtDT0=    0
 Symmetry not used in FoFCou.
 Iteration   1 EE= -342.529785254636                                    Grad=9.416D-01 Max rot=    8.2587 deg.
 Gradient too large for Newton-Raphson -- use scaled steepest descent instead.
 Alpha Gap=     0.598 HL deriv= 5.76D-03
     ILin= 1 X=0.000D+00 Y=-3.425297852546D+02 DE= 0.00D+00 F= -7.12D-01
     ILin= 2 X=3.000D-01 Y=-3.426969728855D+02 DE=-1.67D-01 F= -4.02D-01
     ILin= 3 X=5.000D-01 Y=-3.427563173631D+02 DE=-2.27D-01 F= -1.92D-01
     ILin= 4 X=9.000D-01 Y=-3.427484616965D+02 DE=-2.19D-01 F=  2.31D-01
     An  expanding polynomial of degree  4 produced  0.6817
 Iteration   2 EE= -342.773725089204     Delta-E=       -0.243939834568 Grad=2.981D-01 Max rot=    3.5874 deg.
 Gradient too large for Newton-Raphson -- use scaled steepest descent instead.
 Alpha Gap=     0.663 HL deriv= 2.20D-03
     ILin= 1 X=0.000D+00 Y=-3.427737250892D+02 DE= 0.00D+00 F= -2.81D-02
     ILin= 2 X=5.000D-01 Y=-3.427838580518D+02 DE=-1.01D-02 F= -1.24D-02
     ILin= 3 X=9.000D-01 Y=-3.427863214667D+02 DE=-1.26D-02 F=  9.18D-05
     ILin= 4 X=1.800D+00 Y=-3.427736437297D+02 DE= 8.14D-05 F=  2.80D-02
     An  expanding polynomial of degree  4 produced  0.8971
     Minimum is close to point  3 DX= -2.92D-03 DF= -1.33D-07 DXR=  3.25D-03 DFR=  1.05D-05 which will be used.
 Iteration   3 EE= -342.786321466693     Delta-E=       -0.012596377489 Grad=6.508D-02 Max rot=    0.3976 deg.
 Gradient too large for Newton-Raphson -- use scaled steepest descent instead.
 Alpha Gap=     0.657 HL deriv= 8.83D-04
     ILin= 1 X=0.000D+00 Y=-3.427863214667D+02 DE= 0.00D+00 F= -3.83D-03
     ILin= 2 X=8.000D-01 Y=-3.427876407584D+02 DE=-1.32D-03 F=  5.35D-04
     Accept linear search using points  1 and  2.
     An  expanding polynomial of degree  2 produced  0.6492
 Iteration   4 EE= -342.787659385832     Delta-E=       -0.001337919139 Grad=2.247D-02 Max rot=    0.1802 deg.
 Gradient too large for Newton-Raphson -- use scaled steepest descent instead.
 Alpha Gap=     0.662 HL deriv= 4.04D-05
     ILin= 1 X=0.000D+00 Y=-3.427876593858D+02 DE= 0.00D+00 F= -3.96D-04
     ILin= 2 X=8.000D-01 Y=-3.427878680686D+02 DE=-2.09D-04 F= -1.26D-04
     Reject lnstep minimum 1.772D+00 FVal=-3.427879884760D+02 Lims=  0.00D+00  8.00D-01
     ILin= 3 X=1.500D+00 Y=-3.427878732297D+02 DE=-2.14D-04 F=  1.11D-04
     Accept linear search using points  2 and  3.
     An  expanding polynomial of degree  3 produced  1.1620
 Iteration   5 EE= -342.787891407900     Delta-E=       -0.000232022068 Grad=7.937D-03 Max rot=    0.0419 deg.
 QCNR:  CnvC1=6.36D-09 CnvC2=6.36D-08
 LinEq1:  Iter=  0 NonCon=     1 RMS=8.11D-05 Max=5.60D-04 NDo=     1
 AX will form     1 AO Fock derivatives at one time.
 LinEq1:  Iter=  1 NonCon=     1 RMS=3.60D-05 Max=2.41D-04 NDo=     1
 LinEq1:  Iter=  2 NonCon=     1 RMS=3.19D-06 Max=2.96D-05 NDo=     1
 LinEq1:  Iter=  3 NonCon=     1 RMS=6.69D-07 Max=6.52D-06 NDo=     1
 LinEq1:  Iter=  4 NonCon=     1 RMS=2.29D-07 Max=1.91D-06 NDo=     1
 LinEq1:  Iter=  5 NonCon=     1 RMS=5.00D-08 Max=3.16D-07 NDo=     1
 LinEq1:  Iter=  6 NonCon=     1 RMS=2.01D-08 Max=1.74D-07 NDo=     1
 LinEq1:  Iter=  7 NonCon=     0 RMS=5.65D-09 Max=4.65D-08 NDo=     1
 Linear equations converged to 6.364D-09 6.364D-08 after     7 iterations.
 Angle between quadratic step and gradient=  42.21 degrees.
     ILin= 1 X=0.000D+00 Y=-3.427878914079D+02 DE= 0.00D+00 F= -5.91D-05
     ILin= 2 X=1.000D+00 Y=-3.427879209774D+02 DE=-2.96D-05 F=  1.45D-08
     Accept linear search using points  1 and  2.
     An  expanding polynomial of degree  2 produced  0.9998
     Minimum is close to point  2 DX= -2.45D-04 DF= -1.76D-12 DXR=  2.45D-04 DFR=  5.96D-08 which will be used.
 Iteration   6 EE= -342.787920977355     Delta-E=       -0.000029569455 Grad=4.143D-06 Max rot=    0.0000 deg.
 QCNR:  CnvC1=4.14D-11 CnvC2=4.14D-10
 LinEq1:  Iter=  0 NonCon=     1 RMS=5.87D-08 Max=7.36D-07 NDo=     1
 LinEq1:  Iter=  1 NonCon=     1 RMS=1.25D-08 Max=8.93D-08 NDo=     1
 LinEq1:  Iter=  2 NonCon=     1 RMS=4.19D-09 Max=5.57D-08 NDo=     1
 LinEq1:  Iter=  3 NonCon=     1 RMS=1.13D-09 Max=7.85D-09 NDo=     1
 LinEq1:  Iter=  4 NonCon=     1 RMS=3.68D-10 Max=2.93D-09 NDo=     1
 LinEq1:  Iter=  5 NonCon=     1 RMS=7.44D-11 Max=4.70D-10 NDo=     1
 LinEq1:  Iter=  6 NonCon=     0 RMS=1.88D-11 Max=1.55D-10 NDo=     1
 Linear equations converged to 4.143D-11 4.143D-10 after     6 iterations.
 Angle between quadratic step and gradient=  31.62 degrees.
     ILin= 1 X=0.000D+00 Y=-3.427879209774D+02 DE= 0.00D+00 F= -3.59D-11
     ILin= 2 X=1.000D+00 Y=-3.427879209774D+02 DE=-1.64D-11
 Iteration   7 EE= -342.787920977372     Delta-E=       -0.000000000016 Grad=3.139D-09 Max rot=    0.0000 deg.
 Rotation gradient small -- convergence achieved.
 SCF Done:  E(RHF) =  -342.787920977     a.u. after    7 cycles
            Convg  =    0.3139D-08                    28 Fock formations.
              S**2 =  0.0000                  -V/T =  2.0022
 Leave Link  508 at Wed Sep 20 14:30:45 2023, MaxMem=    33554432 cpu:         1.3
 (Enter /mnt/storage/apps/eb/software/gaussian/09/l601.exe)
 Copying SCF densities to generalized density rwf, IOpCl= 0 IROHF=0.

 **********************************************************************

            Population analysis using the SCF density.

 **********************************************************************

 Orbital symmetries:
       Occupied  (A) (A) (A) (A) (A) (A) (A) (A) (A) (A) (A) (A)
                 (A) (A) (A) (A) (A) (A) (A) (A) (A) (A) (A) (A)
                 (A)
       Virtual   (A) (A) (A) (A) (A) (A) (A) (A) (A) (A) (A) (A)
                 (A) (A) (A) (A) (A) (A) (A) (A) (A) (A) (A) (A)
                 (A) (A) (A) (A) (A) (A) (A) (A) (A) (A) (A) (A)
                 (A) (A) (A) (A) (A) (A) (A) (A) (A) (A) (A) (A)
                 (A) (A) (A) (A) (A) (A) (A) (A) (A) (A) (A) (A)
                 (A) (A) (A) (A) (A) (A) (A) (A) (A) (A) (A) (A)
                 (A) (A) (A) (A) (A) (A) (A) (A) (A)
 The electronic state is 1-A.
 Alpha  occ. eigenvalues --  -20.57406 -20.56464 -20.55123 -11.27992 -11.27648
 Alpha  occ. eigenvalues --  -11.26767  -1.38051  -1.36360  -1.34925  -1.02063
 Alpha  occ. eigenvalues --   -0.90788  -0.81546  -0.72607  -0.70080  -0.67520
 Alpha  occ. eigenvalues --   -0.63657  -0.61086  -0.59510  -0.58038  -0.52036
 Alpha  occ. eigenvalues --   -0.51413  -0.48490  -0.47217  -0.44469  -0.39937
 Alpha virt. eigenvalues --    0.19086   0.21074   0.22717   0.26911   0.30048
 Alpha virt. eigenvalues --    0.32140   0.32972   0.35296   0.38393   0.43425
 Alpha virt. eigenvalues --    0.43485   0.47366   0.50020   0.74848   0.78034
 Alpha virt. eigenvalues --    0.81111   0.82622   0.85210   0.90412   0.91707
 Alpha virt. eigenvalues --    0.97975   0.99880   1.03908   1.05562   1.07564
 Alpha virt. eigenvalues --    1.09413   1.13073   1.13917   1.16306   1.17469
 Alpha virt. eigenvalues --    1.19132   1.22185   1.25202   1.27870   1.31302
 Alpha virt. eigenvalues --    1.33438   1.37536   1.43081   1.45544   1.48424
 Alpha virt. eigenvalues --    1.57434   1.66418   1.73624   1.76142   1.82712
 Alpha virt. eigenvalues --    1.84576   1.90685   1.91962   1.99271   2.04027
 Alpha virt. eigenvalues --    2.06951   2.11131   2.12879   2.15997   2.25626
 Alpha virt. eigenvalues --    2.28537   2.41656   2.44722   2.46765   2.47739
 Alpha virt. eigenvalues --    2.49646   2.57805   2.64459   2.65233   2.68676
 Alpha virt. eigenvalues --    2.72468   2.79536   2.83742   2.89794   2.96053
 Alpha virt. eigenvalues --    3.01530   3.13158   3.23567   3.27712   3.30589
 Alpha virt. eigenvalues --    4.12632   4.23881   4.31034   4.65322   4.76275
 Alpha virt. eigenvalues --    4.97183
          Condensed to atoms (all electrons):
               1          2          3          4          5          6
     1  O    8.393310   0.199820  -0.057562   0.003412   0.003450   0.000110
     2  C    0.199820   4.861452   0.336966  -0.046320  -0.077245  -0.006994
     3  C   -0.057562   0.336966   4.924015   0.175085   0.344215  -0.048971
     4  O    0.003412  -0.046320   0.175085   8.426466  -0.047940   0.002147
     5  C    0.003450  -0.077245   0.344215  -0.047940   4.930868   0.170819
     6  O    0.000110  -0.006994  -0.048971   0.002147   0.170819   8.415062
     7  H    0.261120  -0.028780  -0.001052   0.000004  -0.000096   0.000022
     8  H   -0.034150   0.396936  -0.046331   0.000794  -0.001663   0.000458
     9  H   -0.038747   0.407551  -0.054718   0.002608   0.000743   0.006351
    10  H    0.001091  -0.048886   0.395576  -0.036967  -0.055150   0.002041
    11  H   -0.000390   0.005196  -0.017594   0.256197  -0.001003  -0.000036
    12  H   -0.000026  -0.007949  -0.040390   0.003477   0.397541  -0.036834
    13  H   -0.000058   0.005357  -0.048559   0.004894   0.391988  -0.029960
    14  H   -0.000053  -0.000739  -0.003627   0.000022  -0.030342   0.252739
               7          8          9         10         11         12
     1  O    0.261120  -0.034150  -0.038747   0.001091  -0.000390  -0.000026
     2  C   -0.028780   0.396936   0.407551  -0.048886   0.005196  -0.007949
     3  C   -0.001052  -0.046331  -0.054718   0.395576  -0.017594  -0.040390
     4  O    0.000004   0.000794   0.002608  -0.036967   0.256197   0.003477
     5  C   -0.000096  -0.001663   0.000743  -0.055150  -0.001003   0.397541
     6  O    0.000022   0.000458   0.006351   0.002041  -0.000036  -0.036834
     7  H    0.339772   0.005337  -0.009296   0.002614  -0.000012   0.000004
     8  H    0.005337   0.514385  -0.021790   0.004541  -0.000215   0.003703
     9  H   -0.009296  -0.021790   0.541626  -0.000959  -0.000177   0.000210
    10  H    0.002614   0.004541  -0.000959   0.633129  -0.009191   0.004880
    11  H   -0.000012  -0.000215  -0.000177  -0.009191   0.322562  -0.000274
    12  H    0.000004   0.003703   0.000210   0.004880  -0.000274   0.518221
    13  H    0.000004  -0.000173   0.000060  -0.004133   0.001354  -0.030018
    14  H   -0.000011   0.000058   0.000211   0.005906  -0.000012   0.005894
              13         14
     1  O   -0.000058  -0.000053
     2  C    0.005357  -0.000739
     3  C   -0.048559  -0.003627
     4  O    0.004894   0.000022
     5  C    0.391988  -0.030342
     6  O   -0.029960   0.252739
     7  H    0.000004  -0.000011
     8  H   -0.000173   0.000058
     9  H    0.000060   0.000211
    10  H   -0.004133   0.005906
    11  H    0.001354  -0.000012
    12  H   -0.030018   0.005894
    13  H    0.564705  -0.004675
    14  H   -0.004675   0.347543
 Mulliken charges:
               1
     1  O   -0.731329
     2  C    0.003635
     3  C    0.142947
     4  O   -0.743880
     5  C   -0.026186
     6  O   -0.726956
     7  H    0.430368
     8  H    0.178111
     9  H    0.166327
    10  H    0.105508
    11  H    0.443596
    12  H    0.181561
    13  H    0.149214
    14  H    0.427086
 Sum of Mulliken charges =   0.00000
 Mulliken charges with hydrogens summed into heavy atoms:
               1
     1  O   -0.300961
     2  C    0.348072
     3  C    0.248454
     4  O   -0.300284
     5  C    0.304588
     6  O   -0.299870
 Electronic spatial extent (au):  <R**2>=            648.9283
 Charge=              0.0000 electrons
 Dipole moment (field-independent basis, Debye):
    X=             -1.6057    Y=              0.3782    Z=             -3.5703  Tot=              3.9330
 Quadrupole moment (field-independent basis, Debye-Ang):
   XX=            -44.7877   YY=            -34.5454   ZZ=            -30.7880
   XY=             -4.2824   XZ=             -0.6384   YZ=             -0.2348
 Traceless Quadrupole moment (field-independent basis, Debye-Ang):
   XX=             -8.0806   YY=              2.1616   ZZ=              5.9190
   XY=             -4.2824   XZ=             -0.6384   YZ=             -0.2348
 Octapole moment (field-independent basis, Debye-Ang**2):
  XXX=             -4.2269  YYY=              9.1852  ZZZ=             -5.6347  XYY=              5.3562
  XXY=              4.0468  XXZ=            -12.7513  XZZ=              0.1151  YZZ=             -2.7661
  YYZ=            -14.2959  XYZ=             -0.7708
 Hexadecapole moment (field-independent basis, Debye-Ang**3):
 XXXX=           -499.7591 YYYY=           -203.1625 ZZZZ=            -64.0688 XXXY=             -9.4418
 XXXZ=             -3.6158 YYYX=             -0.2155 YYYZ=            -12.7872 ZZZX=              1.5573
 ZZZY=              4.0685 XXYY=           -116.8128 XXZZ=            -68.8706 YYZZ=            -43.0095
 XXYZ=             14.9429 YYXZ=             -5.5711 ZZXY=              1.7684
 N-N= 2.642445419805D+02 E-N=-1.336676277581D+03  KE= 3.420352314396D+02
 No NMR shielding tensors so no spin-rotation constants.
 Leave Link  601 at Wed Sep 20 14:30:45 2023, MaxMem=    33554432 cpu:         0.1
 (Enter /mnt/storage/apps/eb/software/gaussian/09/l701.exe)
 Compute integral first derivatives.
 ... and contract with generalized density number  0.
 Leave Link  701 at Wed Sep 20 14:30:46 2023, MaxMem=    33554432 cpu:         0.1
 (Enter /mnt/storage/apps/eb/software/gaussian/09/l702.exe)
 L702 exits ... SP integral derivatives will be done elsewhere.
 Leave Link  702 at Wed Sep 20 14:30:46 2023, MaxMem=    33554432 cpu:         0.0
 (Enter /mnt/storage/apps/eb/software/gaussian/09/l703.exe)
 Compute integral first derivatives, UseDBF=F ICtDFT=           0.
 Integral derivatives from FoFJK, PRISM(SPDF).
 Calling FoFJK, ICntrl=      2127 FMM=F ISym2X=0 I1Cent= 0 IOpClX= 0 NMat=1 NMatS=1 NMatT=0.
 FoFJK:  IHMeth= 1 ICntrl=    2127 DoSepK=F KAlg= 0 I1Cent=   0 FoldK=F
 IRaf=         0 NMat=   1 IRICut=       1 DoRegI=T DoRafI=F ISym2E= 0.
 FoFCou: FMM=F IPFlag=           0 FMFlag=      100000 FMFlg1=         800
         NFxFlg=           0 DoJE=F BraDBF=F KetDBF=F FulRan=T
         wScrn=  0.000000 ICntrl=    2127 IOpCl=  0 I1Cent=           0 NGrid=           0
         NMat0=    1 NMatS0=      1 NMatT0=    0 NMatD0=    1 NMtDS0=    0 NMtDT0=    0
 Symmetry not used in FoFCou.
 Leave Link  703 at Wed Sep 20 14:30:47 2023, MaxMem=    33554432 cpu:         1.5
 (Enter /mnt/storage/apps/eb/software/gaussian/09/l716.exe)
 Dipole        =-6.31737440D-01 1.48806893D-01-1.40466383D+00
 ***** Axes restored to original set *****
 -------------------------------------------------------------------
 Center     Atomic                   Forces (Hartrees/Bohr)
 Number     Number              X              Y              Z
 -------------------------------------------------------------------
      1        8           0.013910696    0.021132672    0.018808060
      2        6          -0.000547775    0.016837186    0.009504559
      3        6          -0.015405841    0.009985533    0.001031622
      4        8          -0.014795495   -0.028423427    0.035661245
      5        6           0.011662116   -0.008019982   -0.007026926
      6        8          -0.030853493    0.032584530    0.036533169
      7        1           0.003901418   -0.025659253   -0.012980359
      8        1          -0.004135240    0.006788307    0.008572917
      9        1           0.001878456   -0.022376564   -0.008088591
     10        1           0.001903848   -0.000573016   -0.010492920
     11        1           0.024204485    0.013687864   -0.041946793
     12        1          -0.007485591    0.006693138    0.015935387
     13        1           0.003306122    0.002120616   -0.002697025
     14        1           0.012456296   -0.024777605   -0.042814346
 -------------------------------------------------------------------
 Cartesian Forces:  Max     0.042814346 RMS     0.018757569
 Leave Link  716 at Wed Sep 20 14:30:47 2023, MaxMem=    33554432 cpu:         0.0
 (Enter /mnt/storage/apps/eb/software/gaussian/09/l103.exe)

 GradGradGradGradGradGradGradGradGradGradGradGradGradGradGradGradGradGrad
 Berny optimization.
 FormGI is forming the generalized inverse of G from B-inverse, IUseBI=4.
 Internal  Forces:  Max     0.050835965 RMS     0.013433666
 Search for a local minimum.
 Step number   1 out of a maximum of  100
 All quantities printed in internal units (Hartrees-Bohrs-Radians)
 RMS Force = .13434D-01 SwitMx=.10000D-02 MixMth= 1
 Mixed Optimization -- RFO/linear search
 Second derivative matrix not updated -- first step.
 ITU=  0
     Eigenvalues ---    0.00385   0.00448   0.01710   0.01804   0.01939
     Eigenvalues ---    0.04689   0.05081   0.05269   0.05273   0.05955
     Eigenvalues ---    0.05969   0.06851   0.11256   0.11514   0.13621
     Eigenvalues ---    0.13788   0.16000   0.16000   0.16000   0.16121
     Eigenvalues ---    0.20314   0.21997   0.22174   0.29535   0.29985
     Eigenvalues ---    0.32646   0.32741   0.32833   0.33953   0.34403
     Eigenvalues ---    0.45844   0.47052   0.47336   0.48566   0.48858
     Eigenvalues ---    0.52860
 RFO step:  Lambda=-3.32885920D-02 EMin= 3.85062997D-03
 Linear search not attempted -- first point.
 Maximum step size (   0.300) exceeded in Quadratic search.
    -- Step size scaled by   0.967
 Iteration  1 RMS(Cart)=  0.13173289 RMS(Int)=  0.00537656
 Iteration  2 RMS(Cart)=  0.00777903 RMS(Int)=  0.00102073
 Iteration  3 RMS(Cart)=  0.00002391 RMS(Int)=  0.00102065
 Iteration  4 RMS(Cart)=  0.00000003 RMS(Int)=  0.00102065
 ITry= 1 IFail=0 DXMaxC= 5.32D-01 DCOld= 1.00D+10 DXMaxT= 3.00D-01 DXLimC= 3.00D+00 Rises=F
 Variable       Old X    -DE/DX   Delta X   Delta X   Delta X     New X
                                 (Linear)    (Quad)   (Total)
    R1        2.62963   0.01709   0.00000   0.03282   0.03282   2.66245
    R2        1.83785  -0.02888   0.00000  -0.04971  -0.04971   1.78814
    R3        2.87994   0.00425   0.00000   0.01233   0.01233   2.89227
    R4        2.07409  -0.01164   0.00000  -0.03020  -0.03020   2.04388
    R5        2.09509  -0.01926   0.00000  -0.05164  -0.05164   2.04345
    R6        2.61036   0.01264   0.00000   0.02342   0.02342   2.63378
    R7        2.88900   0.00846   0.00000   0.02490   0.02490   2.91390
    R8        2.09345  -0.00883   0.00000  -0.02361  -0.02361   2.06984
    R9        1.88040  -0.05006   0.00000  -0.09329  -0.09329   1.78711
   R10        2.64308   0.01054   0.00000   0.02074   0.02074   2.66382
   R11        2.09677  -0.01835   0.00000  -0.04935  -0.04935   2.04743
   R12        2.06655  -0.00458   0.00000  -0.01174  -0.01174   2.05481
   R13        1.89353  -0.05084   0.00000  -0.09704  -0.09704   1.79649
    A1        1.88793   0.00511   0.00000   0.02555   0.02555   1.91348
    A2        1.91747   0.01062   0.00000   0.04922   0.04750   1.96497
    A3        1.89729  -0.00545   0.00000  -0.03674  -0.03578   1.86151
    A4        1.87185   0.00382   0.00000   0.06374   0.06095   1.93280
    A5        1.95239  -0.00581   0.00000  -0.04580  -0.04551   1.90688
    A6        1.87184   0.00132   0.00000   0.02374   0.02058   1.89242
    A7        1.95125  -0.00369   0.00000  -0.04711  -0.04684   1.90441
    A8        1.95655  -0.01590   0.00000  -0.07554  -0.07464   1.88191
    A9        1.87387   0.02560   0.00000   0.10130   0.10123   1.97510
   A10        1.88346  -0.00441   0.00000  -0.01041  -0.01069   1.87276
   A11        1.95588  -0.00783   0.00000  -0.03470  -0.03272   1.92316
   A12        1.88698   0.00963   0.00000   0.04193   0.04105   1.92803
   A13        1.90547  -0.00723   0.00000  -0.02233  -0.02294   1.88253
   A14        1.97409  -0.00969   0.00000  -0.04851  -0.04851   1.92559
   A15        1.86689   0.03206   0.00000   0.13097   0.13028   1.99716
   A16        1.90772  -0.00541   0.00000  -0.01290  -0.01536   1.89236
   A17        1.95744  -0.00754   0.00000  -0.03249  -0.03184   1.92561
   A18        1.85016  -0.00581   0.00000   0.00513   0.00289   1.85305
   A19        1.97396  -0.01422   0.00000  -0.06149  -0.06100   1.91296
   A20        1.90381   0.00128   0.00000  -0.02496  -0.02616   1.87765
   A21        1.87158   0.00725   0.00000   0.03629   0.03629   1.90786
    D1       -1.48008  -0.00413   0.00000  -0.04097  -0.04253  -1.52262
    D2        2.66143  -0.00015   0.00000   0.00828   0.00789   2.66932
    D3        0.54886   0.00512   0.00000   0.04842   0.05038   0.59924
    D4       -1.04714   0.00387   0.00000   0.03838   0.03818  -1.00896
    D5        3.08076   0.00618   0.00000   0.06032   0.06184  -3.14059
    D6        1.02884   0.00345   0.00000   0.03847   0.03922   1.06806
    D7        1.06164   0.00040   0.00000  -0.00468  -0.00581   1.05583
    D8       -1.09365   0.00271   0.00000   0.01727   0.01785  -1.07581
    D9        3.13762  -0.00002   0.00000  -0.00458  -0.00477   3.13285
   D10       -3.07609  -0.00696   0.00000  -0.07619  -0.07752   3.12957
   D11        1.05180  -0.00465   0.00000  -0.05425  -0.05386   0.99794
   D12       -1.00011  -0.00738   0.00000  -0.07610  -0.07648  -1.07659
   D13        2.57185  -0.00804   0.00000  -0.02279  -0.02413   2.54771
   D14       -1.60282   0.00815   0.00000   0.02957   0.03073  -1.57210
   D15        0.49794   0.00070   0.00000   0.00815   0.00833   0.50627
   D16       -0.98594  -0.00762   0.00000  -0.07745  -0.07790  -1.06384
   D17        1.00985  -0.00033   0.00000  -0.00939  -0.00935   1.00051
   D18        3.12351  -0.00736   0.00000  -0.07104  -0.07088   3.05262
   D19        3.14155  -0.00035   0.00000  -0.03044  -0.03062   3.11093
   D20       -1.14585   0.00694   0.00000   0.03763   0.03794  -1.10791
   D21        0.96781  -0.00009   0.00000  -0.02402  -0.02360   0.94421
   D22        1.05157  -0.00263   0.00000  -0.04607  -0.04654   1.00504
   D23        3.04737   0.00466   0.00000   0.02199   0.02202   3.06938
   D24       -1.12217  -0.00238   0.00000  -0.03966  -0.03952  -1.16169
   D25       -1.12775  -0.00042   0.00000  -0.00838  -0.00655  -1.13429
   D26        3.12115  -0.00657   0.00000  -0.05803  -0.05877   3.06238
   D27        1.03588   0.00377   0.00000   0.00436   0.00328   1.03916
         Item               Value     Threshold  Converged?
 Maximum Force            0.050836     0.000015     NO 
 RMS     Force            0.013434     0.000010     NO 
 Maximum Displacement     0.531680     0.000060     NO 
 RMS     Displacement     0.131887     0.000040     NO 
 Predicted change in Energy=-1.903116D-02
 Lowest energy point so far.  Saving SCF results.
 GradGradGradGradGradGradGradGradGradGradGradGradGradGradGradGradGradGrad

 Leave Link  103 at Wed Sep 20 14:30:47 2023, MaxMem=    33554432 cpu:         0.0
 (Enter /mnt/storage/apps/eb/software/gaussian/09/l202.exe)
                          Input orientation:                          
 ---------------------------------------------------------------------
 Center     Atomic      Atomic             Coordinates (Angstroms)
 Number     Number       Type             X           Y           Z
 ---------------------------------------------------------------------
      1          8           0        2.302315    0.188050    0.684979
      2          6           0        1.239930    0.231349   -0.239404
      3          6           0       -0.078451   -0.267885    0.356536
      4          8           0        0.123762   -1.570840    0.808111
      5          6           0       -1.250479   -0.227536   -0.644661
      6          8           0       -1.558447    1.059531   -1.130129
      7          1           0        2.320691    0.990518    1.186059
      8          1           0        1.521983   -0.406646   -1.065973
      9          1           0        1.090544    1.238271   -0.604237
     10          1           0       -0.328597    0.393023    1.193395
     11          1           0       -0.393218   -1.733928    1.583016
     12          1           0       -0.981557   -0.820368   -1.510744
     13          1           0       -2.138991   -0.673624   -0.204322
     14          1           0       -1.869486    1.600087   -0.412624
 ---------------------------------------------------------------------
                    Distance matrix (angstroms):
                    1          2          3          4          5
     1  O    0.000000
     2  C    1.408908   0.000000
     3  C    2.446180   1.530525   0.000000
     4  O    2.802668   2.364530   1.393736   0.000000
     5  C    3.816149   2.564555   1.541970   2.409055   0.000000
     6  O    4.354260   3.051261   2.482458   3.674977   1.409634
     7  H    0.946241   1.943278   2.833297   3.395570   4.193858
     8  H    2.007091   1.081576   2.145734   2.612003   2.810005
     9  H    2.057530   1.081347   2.134980   3.289453   2.762357
    10  H    2.687415   2.130570   1.095311   2.051787   2.147885
    11  H    3.430214   3.138583   1.937166   0.945697   2.822526
    12  H    4.077000   2.767204   2.146526   2.676197   1.083452
    13  H    4.610698   3.498187   2.173709   2.636298   1.087357
    14  H    4.538998   3.401752   2.699765   3.939290   1.943506
                    6          7          8          9         10
     6  O    0.000000
     7  H    4.518540   0.000000
     8  H    3.412161   2.767969   0.000000
     9  H    2.706597   2.186276   1.762127   0.000000
    10  H    2.712108   2.715839   3.028013   2.441288   0.000000
    11  H    4.064767   3.865939   3.528004   3.977386   2.163308
    12  H    2.002920   4.632159   2.576179   3.058326   3.034970
    13  H    2.048896   4.958961   3.770470   3.774278   2.523663
    14  H    0.950662   4.526030   3.994484   2.988211   2.531924
                   11         12         13         14
    11  H    0.000000
    12  H    3.279037   0.000000
    13  H    2.714138   1.751549   0.000000
    14  H    4.156633   2.802300   2.299083   0.000000
 Stoichiometry    C3H8O3
 Framework group  C1[X(C3H8O3)]
 Deg. of freedom    36
 Full point group                 C1      NOp   1
 RotChk:  IX=0 Diff= 3.32D-02
 Largest Abelian subgroup         C1      NOp   1
 Largest concise Abelian subgroup C1      NOp   1
                         Standard orientation:                         
 ---------------------------------------------------------------------
 Center     Atomic      Atomic             Coordinates (Angstroms)
 Number     Number       Type             X           Y           Z
 ---------------------------------------------------------------------
      1          8           0        2.209442   -0.667148   -0.087046
      2          6           0        0.874071   -0.725771    0.358340
      3          6           0        0.002312    0.374694   -0.251186
      4          8           0        0.573710    1.602717    0.077394
      5          6           0       -1.462256    0.323832    0.228526
      6          8           0       -2.140113   -0.869403   -0.093604
      7          1           0        2.298079   -1.157266   -0.891597
      8          1           0        0.900133   -0.606010    1.432950
      9          1           0        0.432369   -1.683429    0.119383
     10          1           0        0.005498    0.228984   -1.336757
     11          1           0        0.443048    2.223934   -0.623577
     12          1           0       -1.471067    0.393449    1.309703
     13          1           0       -2.016764    1.174702   -0.159918
     14          1           0       -2.220366   -0.940224   -1.038222
 ---------------------------------------------------------------------
 Rotational constants (GHZ):      5.4527720      2.2922790      1.7379642
 Leave Link  202 at Wed Sep 20 14:30:47 2023, MaxMem=    33554432 cpu:         0.0
 (Enter /mnt/storage/apps/eb/software/gaussian/09/l301.exe)
 Standard basis: 6-31G(d) (6D, 7F)
 Ernie: Thresh=  0.10000D-02 Tol=  0.10000D-05 Strict=F.
 There are   106 symmetry adapted cartesian basis functions of A   symmetry.
 There are   106 symmetry adapted basis functions of A   symmetry.
   106 basis functions,   200 primitive gaussians,   106 cartesian basis functions
    25 alpha electrons       25 beta electrons
       nuclear repulsion energy       260.6849129187 Hartrees.
 IExCor=    0 DFT=F Ex=HF Corr=None ExCW=0 ScaHFX=  1.000000
 ScaDFX=  1.000000  1.000000  1.000000  1.000000 ScalE2=  1.000000  1.000000
 IRadAn=      0 IRanWt=     -1 IRanGd=            0 ICorTp=0 IEmpDi=  4
 NAtoms=   14 NActive=   14 NUniq=   14 SFac= 1.00D+00 NAtFMM=   60 NAOKFM=F Big=F
 Integral buffers will be    131072 words long.
 Raffenetti 1 integral format.
 Two-electron integral symmetry is turned on.
 Leave Link  301 at Wed Sep 20 14:30:47 2023, MaxMem=    33554432 cpu:         0.0
 (Enter /mnt/storage/apps/eb/software/gaussian/09/l302.exe)
 NPDir=0 NMtPBC=     1 NCelOv=     1 NCel=       1 NClECP=     1 NCelD=      1
         NCelK=      1 NCelE2=     1 NClLst=     1 CellRange=     0.0.
 One-electron integrals computed using PRISM.
 NBasis=   106 RedAO= T EigKep=  3.29D-03  NBF=   106
 NBsUse=   106 1.00D-06 EigRej= -1.00D+00 NBFU=   106
 Leave Link  302 at Wed Sep 20 14:30:47 2023, MaxMem=    33554432 cpu:         0.1
 (Enter /mnt/storage/apps/eb/software/gaussian/09/l303.exe)
 DipDrv:  MaxL=1.
 Leave Link  303 at Wed Sep 20 14:30:47 2023, MaxMem=    33554432 cpu:         0.0
 (Enter /mnt/storage/apps/eb/software/gaussian/09/l401.exe)
 Initial guess from the checkpoint file:  "/scratch/nca121/18446470/Gau-848.chk"
 B after Tr=     0.000000    0.000000    0.000000
         Rot=    0.999975    0.002538   -0.006137    0.002503 Ang=   0.81 deg.
 Guess basis will be translated and rotated to current coordinates.
 JPrj=2 DoOrth=T DoCkMO=T.
 Generating alternative initial guess.
 ExpMin= 1.61D-01 ExpMax= 5.48D+03 ExpMxC= 8.25D+02 IAcc=1 IRadAn=         1 AccDes= 0.00D+00
 Harris functional with IExCor=  205 and IRadAn=       1 diagonalized for initial guess.
 HarFok:  IExCor=  205 AccDes= 0.00D+00 IRadAn=         1 IDoV= 1 UseB2=F ITyADJ=14
 ICtDFT=  3500011 ScaDFX=  1.000000  1.000000  1.000000  1.000000
 FoFCou: FMM=F IPFlag=           0 FMFlag=      100000 FMFlg1=           0
         NFxFlg=           0 DoJE=T BraDBF=F KetDBF=T FulRan=T
         wScrn=  0.000000 ICntrl=     500 IOpCl=  0 I1Cent=   200000004 NGrid=           0
         NMat0=    1 NMatS0=      1 NMatT0=    0 NMatD0=    1 NMtDS0=    0 NMtDT0=    0
 Petite list used in FoFCou.
 Harris En= -343.195775770326    
 Leave Link  401 at Wed Sep 20 14:30:48 2023, MaxMem=    33554432 cpu:         0.3
 (Enter /mnt/storage/apps/eb/software/gaussian/09/l508.exe)
 Direct SCF.
 Tight linear equation convergence will be used.
 RHF wavefunction.
 Quadratic Convergence SCF Method.
 Line search only if initial step raises energy.
 Integral symmetry usage will be decided dynamically.
 ReadGW:  IGet=1 IStart=         402 Next=         402 LGW=           0.
 Keep R1 ints in memory in canonical form, NReq=17056296.
 FoFCou: FMM=F IPFlag=           0 FMFlag=           0 FMFlg1=           0
         NFxFlg=           0 DoJE=F BraDBF=F KetDBF=F FulRan=T
         wScrn=  0.000000 ICntrl=     600 IOpCl=  0 I1Cent=           0 NGrid=           0
         NMat0=    1 NMatS0=   5671 NMatT0=    0 NMatD0=    1 NMtDS0=    0 NMtDT0=    0
 Symmetry not used in FoFCou.
 Iteration   1 EE= -342.783441033913                                    Grad=1.566D-01 Max rot=    0.7371 deg.
 Gradient too large for Newton-Raphson -- use scaled steepest descent instead.
 Alpha Gap=     1.930 HL deriv= 4.14D-04
     ILin= 1 X=0.000D+00 Y=-3.427834410339D+02 DE= 0.00D+00 F= -2.04D-02
     ILin= 2 X=3.000D-01 Y=-3.427888748035D+02 DE=-5.43D-03 F= -1.58D-02
     ILin= 3 X=6.000D-01 Y=-3.427929439934D+02 DE=-9.50D-03 F= -1.13D-02
     ILin= 4 X=1.200D+00 Y=-3.427969866755D+02 DE=-1.35D-02 F= -2.19D-03
     ILin= 5 X=2.400D+00 Y=-3.427886821140D+02 DE=-5.24D-03 F=  1.60D-02
     An  expanding polynomial of degree  5 produced  1.3440
 Iteration   2 EE= -342.797144085391     Delta-E=       -0.013703051478 Grad=8.729D-02 Max rot=    0.5076 deg.
 Gradient too large for Newton-Raphson -- use scaled steepest descent instead.
 Alpha Gap=     1.931 HL deriv= 9.09D-04
     ILin= 1 X=0.000D+00 Y=-3.427971440854D+02 DE= 0.00D+00 F= -6.26D-03
     ILin= 2 X=6.000D-01 Y=-3.427997015391D+02 DE=-2.56D-03 F= -2.27D-03
     ILin= 3 X=1.300D+00 Y=-3.427996598913D+02 DE=-2.52D-03 F=  2.39D-03
     An  expanding polynomial of degree  3 produced  0.9411
 Iteration   3 EE= -342.800088187727     Delta-E=       -0.002944102336 Grad=4.955D-02 Max rot=    0.3494 deg.
 Gradient too large for Newton-Raphson -- use scaled steepest descent instead.
 Alpha Gap=     1.931 HL deriv= 4.51D-04
     ILin= 1 X=0.000D+00 Y=-3.428000881877D+02 DE= 0.00D+00 F= -2.16D-03
     ILin= 2 X=1.100D+00 Y=-3.428010585412D+02 DE=-9.70D-04 F=  3.98D-04
     Accept linear search using points  1 and  2.
     An  expanding polynomial of degree  2 produced  0.9556
 Iteration   4 EE= -342.801091767978     Delta-E=       -0.001003580251 Grad=3.890D-02 Max rot=    0.2318 deg.
 Gradient too large for Newton-Raphson -- use scaled steepest descent instead.
 Alpha Gap=     1.931 HL deriv= 4.34D-04
     ILin= 1 X=0.000D+00 Y=-3.428010917680D+02 DE= 0.00D+00 F= -1.26D-03
     ILin= 2 X=9.000D-01 Y=-3.428015864426D+02 DE=-4.95D-04 F=  1.65D-04
     Accept linear search using points  1 and  2.
     An  expanding polynomial of degree  2 produced  0.7716
 Iteration   5 EE= -342.801594492268     Delta-E=       -0.000502724290 Grad=2.440D-02 Max rot=    0.1768 deg.
 Gradient too large for Newton-Raphson -- use scaled steepest descent instead.
 Alpha Gap=     1.931 HL deriv= 1.61D-04
     ILin= 1 X=0.000D+00 Y=-3.428015944923D+02 DE= 0.00D+00 F= -5.35D-04
     ILin= 2 X=9.000D-01 Y=-3.428018638812D+02 DE=-2.69D-04 F= -6.34D-05
     Reject lnstep minimum 1.111D+00 FVal=-3.428018710052D+02 Lims=  0.00D+00  9.00D-01
     ILin= 3 X=1.700D+00 Y=-3.428017468513D+02 DE=-1.52D-04 F=  3.56D-04
     An  expanding polynomial of degree  3 produced  1.0210
 Iteration   6 EE= -342.801867716384     Delta-E=       -0.000273224116 Grad=2.204D-02 Max rot=    0.1499 deg.
 Gradient too large for Newton-Raphson -- use scaled steepest descent instead.
 Alpha Gap=     1.930 HL deriv= 1.81D-04
     ILin= 1 X=0.000D+00 Y=-3.428018677164D+02 DE= 0.00D+00 F= -4.10D-04
     ILin= 2 X=9.000D-01 Y=-3.428020114848D+02 DE=-1.44D-04 F=  9.06D-05
     Accept linear search using points  1 and  2.
     An  expanding polynomial of degree  2 produced  0.7089
 Iteration   7 EE= -342.802018637432     Delta-E=       -0.000150921048 Grad=1.322D-02 Max rot=    0.0842 deg.
 Gradient too large for Newton-Raphson -- use scaled steepest descent instead.
 Alpha Gap=     1.930 HL deriv= 5.71D-05
     ILin= 1 X=0.000D+00 Y=-3.428020186374D+02 DE= 0.00D+00 F= -1.58D-04
     ILin= 2 X=9.000D-01 Y=-3.428021038431D+02 DE=-8.52D-05 F= -3.17D-05
     Reject lnstep minimum 1.488D+00 FVal=-3.428021125661D+02 Lims=  0.00D+00  9.00D-01
     ILin= 3 X=1.700D+00 Y=-3.428020844566D+02 DE=-6.58D-05 F=  8.02D-05
     An  expanding polynomial of degree  3 produced  1.1268
 Iteration   8 EE= -342.802107439833     Delta-E=       -0.000088802401 Grad=1.318D-02 Max rot=    0.0927 deg.
 Gradient too large for Newton-Raphson -- use scaled steepest descent instead.
 Alpha Gap=     1.930 HL deriv= 6.80D-05
     ILin= 1 X=0.000D+00 Y=-3.428021074398D+02 DE= 0.00D+00 F= -1.48D-04
     ILin= 2 X=9.000D-01 Y=-3.428021522333D+02 DE=-4.48D-05 F=  4.83D-05
     Accept linear search using points  1 and  2.
     An  expanding polynomial of degree  2 produced  0.6512
 Iteration   9 EE= -342.802157512397     Delta-E=       -0.000050072564 Grad=7.274D-03 Max rot=    0.0420 deg.
 QCNR:  CnvC1=6.36D-09 CnvC2=6.36D-08
 LinEq1:  Iter=  0 NonCon=     1 RMS=1.11D-04 Max=1.17D-03 NDo=     1
 AX will form     1 AO Fock derivatives at one time.
 LinEq1:  Iter=  1 NonCon=     1 RMS=1.07D-05 Max=7.92D-05 NDo=     1
 LinEq1:  Iter=  2 NonCon=     1 RMS=3.64D-06 Max=2.42D-05 NDo=     1
 LinEq1:  Iter=  3 NonCon=     1 RMS=1.05D-06 Max=8.15D-06 NDo=     1
 LinEq1:  Iter=  4 NonCon=     1 RMS=3.39D-07 Max=2.38D-06 NDo=     1
 LinEq1:  Iter=  5 NonCon=     1 RMS=9.91D-08 Max=8.89D-07 NDo=     1
 LinEq1:  Iter=  6 NonCon=     1 RMS=1.78D-08 Max=1.19D-07 NDo=     1
 LinEq1:  Iter=  7 NonCon=     0 RMS=5.07D-09 Max=4.06D-08 NDo=     1
 Linear equations converged to 6.364D-09 6.364D-08 after     7 iterations.
 Angle between quadratic step and gradient=  30.30 degrees.
     ILin= 1 X=0.000D+00 Y=-3.428021575124D+02 DE= 0.00D+00 F= -1.43D-04
     ILin= 2 X=1.000D+00 Y=-3.428022289285D+02 DE=-7.14D-05 F= -4.00D-08
     Reject lnstep minimum 1.000D+00 FVal=-3.428022289285D+02 Lims=  0.00D+00  1.00D+00
     ILin= 3 X=2.000D+00 Y=-3.428021576187D+02 DE=-1.06D-07 F=  1.43D-04
     An  expanding polynomial of degree  3 produced  1.0004
     Minimum is close to point  2 DX=  3.72D-04 DF= -9.83D-12 DXR=  3.72D-04 DFR=  1.38D-07 which will be used.
 Iteration  10 EE= -342.802228928465     Delta-E=       -0.000071416068 Grad=1.592D-05 Max rot=    0.0001 deg.
 QCNR:  CnvC1=1.59D-10 CnvC2=1.59D-09
 LinEq1:  Iter=  0 NonCon=     1 RMS=1.71D-07 Max=1.26D-06 NDo=     1
 LinEq1:  Iter=  1 NonCon=     1 RMS=6.10D-08 Max=5.63D-07 NDo=     1
 LinEq1:  Iter=  2 NonCon=     1 RMS=1.28D-08 Max=1.06D-07 NDo=     1
 LinEq1:  Iter=  3 NonCon=     1 RMS=4.48D-09 Max=3.99D-08 NDo=     1
 LinEq1:  Iter=  4 NonCon=     1 RMS=9.27D-10 Max=6.04D-09 NDo=     1
 LinEq1:  Iter=  5 NonCon=     1 RMS=2.05D-10 Max=1.76D-09 NDo=     1
 LinEq1:  Iter=  6 NonCon=     0 RMS=5.51D-11 Max=3.67D-10 NDo=     1
 Linear equations converged to 1.592D-10 1.592D-09 after     6 iterations.
 Angle between quadratic step and gradient=  39.19 degrees.
     ILin= 1 X=0.000D+00 Y=-3.428022289285D+02 DE= 0.00D+00 F= -2.42D-10
     ILin= 2 X=1.000D+00 Y=-3.428022289286D+02 DE=-1.20D-10
 Iteration  11 EE= -342.802228928585     Delta-E=       -0.000000000120 Grad=8.656D-09 Max rot=    0.0000 deg.
 Rotation gradient small -- convergence achieved.
 SCF Done:  E(RHF) =  -342.802228929     a.u. after   11 cycles
            Convg  =    0.8656D-08                    39 Fock formations.
              S**2 =  0.0000                  -V/T =  2.0017
 Leave Link  508 at Wed Sep 20 14:30:49 2023, MaxMem=    33554432 cpu:         1.6
 (Enter /mnt/storage/apps/eb/software/gaussian/09/l701.exe)
 Compute integral first derivatives.
 ... and contract with generalized density number  0.
 Leave Link  701 at Wed Sep 20 14:30:49 2023, MaxMem=    33554432 cpu:         0.1
 (Enter /mnt/storage/apps/eb/software/gaussian/09/l702.exe)
 L702 exits ... SP integral derivatives will be done elsewhere.
 Leave Link  702 at Wed Sep 20 14:30:49 2023, MaxMem=    33554432 cpu:         0.0
 (Enter /mnt/storage/apps/eb/software/gaussian/09/l703.exe)
 Compute integral first derivatives, UseDBF=F ICtDFT=           0.
 Integral derivatives from FoFJK, PRISM(SPDF).
 Calling FoFJK, ICntrl=      2127 FMM=F ISym2X=0 I1Cent= 0 IOpClX= 0 NMat=1 NMatS=1 NMatT=0.
 FoFJK:  IHMeth= 1 ICntrl=    2127 DoSepK=F KAlg= 0 I1Cent=   0 FoldK=F
 IRaf=         0 NMat=   1 IRICut=       1 DoRegI=T DoRafI=F ISym2E= 0.
 FoFCou: FMM=F IPFlag=           0 FMFlag=      100000 FMFlg1=         800
         NFxFlg=           0 DoJE=F BraDBF=F KetDBF=F FulRan=T
         wScrn=  0.000000 ICntrl=    2127 IOpCl=  0 I1Cent=           0 NGrid=           0
         NMat0=    1 NMatS0=      1 NMatT0=    0 NMatD0=    1 NMtDS0=    0 NMtDT0=    0
 Symmetry not used in FoFCou.
 Leave Link  703 at Wed Sep 20 14:30:51 2023, MaxMem=    33554432 cpu:         1.4
 (Enter /mnt/storage/apps/eb/software/gaussian/09/l716.exe)
 Dipole        =-5.64008324D-01 4.11992492D-02-1.40613759D+00
 ***** Axes restored to original set *****
 -------------------------------------------------------------------
 Center     Atomic                   Forces (Hartrees/Bohr)
 Number     Number              X              Y              Z
 -------------------------------------------------------------------
      1        8          -0.005237590    0.001051823   -0.003396812
      2        6          -0.001920445   -0.001720270    0.004858494
      3        6          -0.000654419    0.012542099    0.000405913
      4        8          -0.003351043   -0.005256228   -0.000152919
      5        6           0.004192038    0.000077431   -0.004286600
      6        8           0.005162349   -0.000587485    0.007292917
      7        1          -0.000635037   -0.000542986    0.000402548
      8        1          -0.000245620   -0.000063075   -0.000537375
      9        1           0.000624781    0.001382142   -0.004414611
     10        1           0.001015879   -0.001633607    0.000310225
     11        1          -0.000107907   -0.001002395   -0.000577108
     12        1          -0.001497845    0.000054528    0.000636207
     13        1           0.002477543   -0.002435271    0.002637760
     14        1           0.000177315   -0.001866706   -0.003178639
 -------------------------------------------------------------------
 Cartesian Forces:  Max     0.012542099 RMS     0.003261208
 Leave Link  716 at Wed Sep 20 14:30:51 2023, MaxMem=    33554432 cpu:         0.0
 (Enter /mnt/storage/apps/eb/software/gaussian/09/l103.exe)

 GradGradGradGradGradGradGradGradGradGradGradGradGradGradGradGradGradGrad
 Berny optimization.
 Using GEDIIS/GDIIS optimizer.
 FormGI is forming the generalized inverse of G from B-inverse, IUseBI=4.
 Internal  Forces:  Max     0.010127932 RMS     0.002882200
 Search for a local minimum.
 Step number   2 out of a maximum of  100
 All quantities printed in internal units (Hartrees-Bohrs-Radians)
 RMS Force = .28822D-02 SwitMx=.10000D-02 MixMth= 1
 Mixed Optimization -- RFO/linear search
 Update second derivatives using D2CorX and points    1    2
 DE= -1.43D-02 DEPred=-1.90D-02 R= 7.52D-01
 TightC=F SS=  1.41D+00  RLast= 3.72D-01 DXNew= 5.0454D-01 1.1146D+00
 Trust test= 7.52D-01 RLast= 3.72D-01 DXMaxT set to 5.05D-01
 ITU=  1  0
 Use linear search instead of GDIIS.
     Eigenvalues ---    0.00389   0.00447   0.01710   0.01803   0.01938
     Eigenvalues ---    0.04365   0.04665   0.04922   0.05168   0.05916
     Eigenvalues ---    0.06092   0.07479   0.11705   0.12010   0.13991
     Eigenvalues ---    0.14171   0.15971   0.16000   0.16063   0.16981
     Eigenvalues ---    0.20616   0.22087   0.25149   0.29841   0.30320
     Eigenvalues ---    0.32588   0.32807   0.33541   0.34255   0.34483
     Eigenvalues ---    0.44785   0.46195   0.47833   0.48358   0.50071
     Eigenvalues ---    0.52910
 RFO step:  Lambda=-2.63135983D-03 EMin= 3.89150954D-03
 Quartic linear search produced a step of -0.07719.
 Iteration  1 RMS(Cart)=  0.06382544 RMS(Int)=  0.00193385
 Iteration  2 RMS(Cart)=  0.00224884 RMS(Int)=  0.00020212
 Iteration  3 RMS(Cart)=  0.00000186 RMS(Int)=  0.00020212
 Iteration  4 RMS(Cart)=  0.00000000 RMS(Int)=  0.00020212
 ITry= 1 IFail=0 DXMaxC= 1.97D-01 DCOld= 1.00D+10 DXMaxT= 5.05D-01 DXLimC= 3.00D+00 Rises=F
 Variable       Old X    -DE/DX   Delta X   Delta X   Delta X     New X
                                 (Linear)    (Quad)   (Total)
    R1        2.66245  -0.00641  -0.00253  -0.00791  -0.01044   2.65201
    R2        1.78814  -0.00026   0.00384  -0.00738  -0.00354   1.78460
    R3        2.89227  -0.00515  -0.00095  -0.01396  -0.01491   2.87736
    R4        2.04388   0.00038   0.00233  -0.00319  -0.00086   2.04302
    R5        2.04345   0.00269   0.00399   0.00028   0.00427   2.04772
    R6        2.63378   0.00511  -0.00181   0.01286   0.01105   2.64483
    R7        2.91390  -0.01013  -0.00192  -0.02783  -0.02976   2.88415
    R8        2.06984  -0.00098   0.00182  -0.00604  -0.00422   2.06562
    R9        1.78711  -0.00024   0.00720  -0.01347  -0.00627   1.78084
   R10        2.66382  -0.00482  -0.00160  -0.00675  -0.00835   2.65547
   R11        2.04743  -0.00091   0.00381  -0.00946  -0.00565   2.04178
   R12        2.05481   0.00004   0.00091  -0.00153  -0.00062   2.05418
   R13        1.79649  -0.00352   0.00749  -0.02035  -0.01286   1.78363
    A1        1.91348  -0.00021  -0.00197   0.00244   0.00046   1.91394
    A2        1.96497  -0.00326  -0.00367  -0.00405  -0.00763   1.95734
    A3        1.86151   0.00163   0.00276   0.00143   0.00408   1.86559
    A4        1.93280   0.00075  -0.00470   0.01612   0.01158   1.94437
    A5        1.90688   0.00012   0.00351  -0.01049  -0.00699   1.89989
    A6        1.89242   0.00247  -0.00159   0.01869   0.01733   1.90975
    A7        1.90441  -0.00177   0.00362  -0.02350  -0.01985   1.88457
    A8        1.88191   0.00499   0.00576   0.00524   0.01007   1.89198
    A9        1.97510  -0.00534  -0.00781  -0.01706  -0.02502   1.95008
   A10        1.87276   0.00092   0.00083   0.01564   0.01648   1.88925
   A11        1.92316  -0.00277   0.00253  -0.03252  -0.03026   1.89290
   A12        1.92803  -0.00052  -0.00317   0.01600   0.01284   1.94087
   A13        1.88253   0.00277   0.00177   0.01470   0.01680   1.89933
   A14        1.92559   0.00156   0.00374   0.00195   0.00569   1.93128
   A15        1.99716  -0.00782  -0.01006  -0.01420  -0.02424   1.97292
   A16        1.89236   0.00323   0.00119   0.01457   0.01612   1.90848
   A17        1.92561  -0.00223   0.00246  -0.02766  -0.02522   1.90038
   A18        1.85305   0.00196  -0.00022   0.01179   0.01179   1.86484
   A19        1.91296   0.00594   0.00471   0.02160   0.02585   1.93880
   A20        1.87765  -0.00060   0.00202  -0.00413  -0.00206   1.87558
   A21        1.90786   0.00098  -0.00280   0.01071   0.00791   1.91577
    D1       -1.52262  -0.00022   0.00328   0.00724   0.01062  -1.51199
    D2        2.66932   0.00048  -0.00061   0.02157   0.02099   2.69031
    D3        0.59924   0.00123  -0.00389   0.04012   0.03610   0.63534
    D4       -1.00896  -0.00266  -0.00295  -0.11956  -0.12261  -1.13157
    D5       -3.14059   0.00078  -0.00477  -0.07102  -0.07589   3.06671
    D6        1.06806  -0.00010  -0.00303  -0.08945  -0.09245   0.97562
    D7        1.05583  -0.00257   0.00045  -0.12722  -0.12677   0.92906
    D8       -1.07581   0.00087  -0.00138  -0.07868  -0.08005  -1.15585
    D9        3.13285  -0.00001   0.00037  -0.09711  -0.09661   3.03624
   D10        3.12957  -0.00319   0.00598  -0.15064  -0.14470   2.98487
   D11        0.99794   0.00024   0.00416  -0.10210  -0.09797   0.89997
   D12       -1.07659  -0.00064   0.00590  -0.12053  -0.11453  -1.19112
   D13        2.54771   0.00334   0.00186   0.04085   0.04292   2.59063
   D14       -1.57210  -0.00174  -0.00237   0.00249   0.00000  -1.57210
   D15        0.50627  -0.00038  -0.00064   0.01021   0.00949   0.51575
   D16       -1.06384   0.00039   0.00601  -0.03874  -0.03227  -1.09611
   D17        1.00051   0.00024   0.00072  -0.02256  -0.02158   0.97893
   D18        3.05262   0.00016   0.00547  -0.03467  -0.02911   3.02351
   D19        3.11093  -0.00039   0.00236  -0.01048  -0.00822   3.10271
   D20       -1.10791  -0.00054  -0.00293   0.00570   0.00247  -1.10544
   D21        0.94421  -0.00062   0.00182  -0.00641  -0.00506   0.93914
   D22        1.00504   0.00017   0.00359  -0.01981  -0.01600   0.98903
   D23        3.06938   0.00002  -0.00170  -0.00363  -0.00531   3.06407
   D24       -1.16169  -0.00006   0.00305  -0.01574  -0.01284  -1.17453
   D25       -1.13429   0.00105   0.00051  -0.01314  -0.01262  -1.14692
   D26        3.06238   0.00030   0.00454  -0.03102  -0.02624   3.03614
   D27        1.03916  -0.00299  -0.00025  -0.04322  -0.04373   0.99543
         Item               Value     Threshold  Converged?
 Maximum Force            0.010128     0.000015     NO 
 RMS     Force            0.002882     0.000010     NO 
 Maximum Displacement     0.197432     0.000060     NO 
 RMS     Displacement     0.063811     0.000040     NO 
 Predicted change in Energy=-1.610149D-03
 Lowest energy point so far.  Saving SCF results.
 GradGradGradGradGradGradGradGradGradGradGradGradGradGradGradGradGradGrad

 Leave Link  103 at Wed Sep 20 14:30:51 2023, MaxMem=    33554432 cpu:         0.0
 (Enter /mnt/storage/apps/eb/software/gaussian/09/l202.exe)
                          Input orientation:                          
 ---------------------------------------------------------------------
 Center     Atomic      Atomic             Coordinates (Angstroms)
 Number     Number       Type             X           Y           Z
 ---------------------------------------------------------------------
      1          8           0        2.271293    0.257558    0.697965
      2          6           0        1.231727    0.212811   -0.243728
      3          6           0       -0.076608   -0.269270    0.368050
      4          8           0        0.090204   -1.596954    0.778253
      5          6           0       -1.224211   -0.214549   -0.636625
      6          8           0       -1.508389    1.089450   -1.076464
      7          1           0        2.258020    1.088421    1.146653
      8          1           0        1.534898   -0.483204   -1.013448
      9          1           0        1.077472    1.179347   -0.708714
     10          1           0       -0.317809    0.378748    1.214643
     11          1           0       -0.440055   -1.780029    1.535480
     12          1           0       -0.961031   -0.790041   -1.512377
     13          1           0       -2.102093   -0.677832   -0.193545
     14          1           0       -1.833418    1.605547   -0.356141
 ---------------------------------------------------------------------
                    Distance matrix (angstroms):
                    1          2          3          4          5
     1  O    0.000000
     2  C    1.403384   0.000000
     3  C    2.428792   1.522634   0.000000
     4  O    2.864055   2.371238   1.399585   0.000000
     5  C    3.771282   2.523616   1.526224   2.374997   0.000000
     6  O    4.257540   2.995026   2.445964   3.634865   1.405215
     7  H    0.944367   1.937299   2.810699   3.470790   4.123559
     8  H    2.004979   1.081119   2.133367   2.556907   2.797651
     9  H    2.062438   1.083604   2.142385   3.300548   2.691819
    10  H    2.642933   2.134348   1.093080   2.064051   2.144938
    11  H    3.493508   3.151483   1.943548   0.942382   2.789923
    12  H    4.053516   2.724586   2.142292   2.646354   1.080461
    13  H    4.560291   3.451104   2.141239   2.568140   1.087027
    14  H    4.447119   3.368599   2.669414   3.904252   1.939731
                    6          7          8          9         10
     6  O    0.000000
     7  H    4.373567   0.000000
     8  H    3.426194   2.767480   0.000000
     9  H    2.613427   2.200987   1.751051   0.000000
    10  H    2.678013   2.672667   3.023222   2.507403   0.000000
    11  H    4.024612   3.957120   3.475518   4.012132   2.185909
    12  H    2.005519   4.578356   2.563735   2.946160   3.035859
    13  H    2.062842   4.891458   3.733339   3.718084   2.506596
    14  H    0.943857   4.389267   4.017522   2.962977   2.503891
                   11         12         13         14
    11  H    0.000000
    12  H    3.246679   0.000000
    13  H    2.639457   1.747550   0.000000
    14  H    4.120900   2.799425   2.304874   0.000000
 Stoichiometry    C3H8O3
 Framework group  C1[X(C3H8O3)]
 Deg. of freedom    36
 Full point group                 C1      NOp   1
 RotChk:  IX=0 Diff= 4.37D-02
 Largest Abelian subgroup         C1      NOp   1
 Largest concise Abelian subgroup C1      NOp   1
                         Standard orientation:                         
 ---------------------------------------------------------------------
 Center     Atomic      Atomic             Coordinates (Angstroms)
 Number     Number       Type             X           Y           Z
 ---------------------------------------------------------------------
      1          8           0        2.182776   -0.682127   -0.114941
      2          6           0        0.876097   -0.681740    0.396991
      3          6           0        0.002501    0.378241   -0.260037
      4          8           0        0.514518    1.638653    0.068653
      5          6           0       -1.441882    0.301480    0.227022
      6          8           0       -2.068455   -0.913272   -0.099183
      7          1           0        2.222532   -1.228641   -0.884079
      8          1           0        0.952728   -0.465607    1.453511
      9          1           0        0.408135   -1.652921    0.287370
     10          1           0        0.019528    0.214108   -1.340590
     11          1           0        0.358980    2.252864   -0.628941
     12          1           0       -1.461334    0.384524    1.304111
     13          1           0       -1.994248    1.146827   -0.175358
     14          1           0       -2.157334   -0.985068   -1.036099
 ---------------------------------------------------------------------
 Rotational constants (GHZ):      5.2701313      2.3843564      1.7777857
 Leave Link  202 at Wed Sep 20 14:30:51 2023, MaxMem=    33554432 cpu:         0.0
 (Enter /mnt/storage/apps/eb/software/gaussian/09/l301.exe)
 Standard basis: 6-31G(d) (6D, 7F)
 Ernie: Thresh=  0.10000D-02 Tol=  0.10000D-05 Strict=F.
 There are   106 symmetry adapted cartesian basis functions of A   symmetry.
 There are   106 symmetry adapted basis functions of A   symmetry.
   106 basis functions,   200 primitive gaussians,   106 cartesian basis functions
    25 alpha electrons       25 beta electrons
       nuclear repulsion energy       262.0856257778 Hartrees.
 IExCor=    0 DFT=F Ex=HF Corr=None ExCW=0 ScaHFX=  1.000000
 ScaDFX=  1.000000  1.000000  1.000000  1.000000 ScalE2=  1.000000  1.000000
 IRadAn=      0 IRanWt=     -1 IRanGd=            0 ICorTp=0 IEmpDi=  4
 NAtoms=   14 NActive=   14 NUniq=   14 SFac= 1.00D+00 NAtFMM=   60 NAOKFM=F Big=F
 Integral buffers will be    131072 words long.
 Raffenetti 1 integral format.
 Two-electron integral symmetry is turned on.
 Leave Link  301 at Wed Sep 20 14:30:51 2023, MaxMem=    33554432 cpu:         0.0
 (Enter /mnt/storage/apps/eb/software/gaussian/09/l302.exe)
 NPDir=0 NMtPBC=     1 NCelOv=     1 NCel=       1 NClECP=     1 NCelD=      1
         NCelK=      1 NCelE2=     1 NClLst=     1 CellRange=     0.0.
 One-electron integrals computed using PRISM.
 NBasis=   106 RedAO= T EigKep=  3.15D-03  NBF=   106
 NBsUse=   106 1.00D-06 EigRej= -1.00D+00 NBFU=   106
 Leave Link  302 at Wed Sep 20 14:30:51 2023, MaxMem=    33554432 cpu:         0.1
 (Enter /mnt/storage/apps/eb/software/gaussian/09/l303.exe)
 DipDrv:  MaxL=1.
 Leave Link  303 at Wed Sep 20 14:30:51 2023, MaxMem=    33554432 cpu:         0.0
 (Enter /mnt/storage/apps/eb/software/gaussian/09/l401.exe)
 Initial guess from the checkpoint file:  "/scratch/nca121/18446470/Gau-848.chk"
 B after Tr=     0.000000    0.000000    0.000000
         Rot=    0.999940    0.007787   -0.000656   -0.007695 Ang=   1.26 deg.
 Guess basis will be translated and rotated to current coordinates.
 JPrj=2 DoOrth=T DoCkMO=T.
 Generating alternative initial guess.
 ExpMin= 1.61D-01 ExpMax= 5.48D+03 ExpMxC= 8.25D+02 IAcc=1 IRadAn=         1 AccDes= 0.00D+00
 Harris functional with IExCor=  205 and IRadAn=       1 diagonalized for initial guess.
 HarFok:  IExCor=  205 AccDes= 0.00D+00 IRadAn=         1 IDoV= 1 UseB2=F ITyADJ=14
 ICtDFT=  3500011 ScaDFX=  1.000000  1.000000  1.000000  1.000000
 FoFCou: FMM=F IPFlag=           0 FMFlag=      100000 FMFlg1=           0
         NFxFlg=           0 DoJE=T BraDBF=F KetDBF=T FulRan=T
         wScrn=  0.000000 ICntrl=     500 IOpCl=  0 I1Cent=   200000004 NGrid=           0
         NMat0=    1 NMatS0=      1 NMatT0=    0 NMatD0=    1 NMtDS0=    0 NMtDT0=    0
 Petite list used in FoFCou.
 Harris En= -343.198493481123    
 Leave Link  401 at Wed Sep 20 14:30:51 2023, MaxMem=    33554432 cpu:         0.3
 (Enter /mnt/storage/apps/eb/software/gaussian/09/l508.exe)
 Direct SCF.
 Tight linear equation convergence will be used.
 RHF wavefunction.
 Quadratic Convergence SCF Method.
 Line search only if initial step raises energy.
 Integral symmetry usage will be decided dynamically.
 ReadGW:  IGet=1 IStart=         402 Next=         402 LGW=           0.
 Keep R1 ints in memory in canonical form, NReq=17056409.
 FoFCou: FMM=F IPFlag=           0 FMFlag=           0 FMFlg1=           0
         NFxFlg=           0 DoJE=F BraDBF=F KetDBF=F FulRan=T
         wScrn=  0.000000 ICntrl=     600 IOpCl=  0 I1Cent=           0 NGrid=           0
         NMat0=    1 NMatS0=   5671 NMatT0=    0 NMatD0=    1 NMtDS0=    0 NMtDT0=    0
 Symmetry not used in FoFCou.
 Iteration   1 EE= -342.797978803245                                    Grad=8.413D-02 Max rot=    0.5532 deg.
 Gradient too large for Newton-Raphson -- use scaled steepest descent instead.
 Alpha Gap=     1.923 HL deriv= 7.56D-04
     ILin= 1 X=0.000D+00 Y=-3.427979788032D+02 DE= 0.00D+00 F= -5.95D-03
     ILin= 2 X=3.000D-01 Y=-3.427995819729D+02 DE=-1.60D-03 F= -4.74D-03
     ILin= 3 X=6.000D-01 Y=-3.428008207430D+02 DE=-2.84D-03 F= -3.52D-03
     ILin= 4 X=1.200D+00 Y=-3.428022046477D+02 DE=-4.23D-03 F= -1.09D-03
     ILin= 5 X=2.400D+00 Y=-3.428005955967D+02 DE=-2.62D-03 F=  3.77D-03
     An  expanding polynomial of degree  5 produced  1.4692
 Iteration   2 EE= -342.802351516861     Delta-E=       -0.004372713616 Grad=4.576D-02 Max rot=    0.2353 deg.
 Gradient too large for Newton-Raphson -- use scaled steepest descent instead.
 Alpha Gap=     1.923 HL deriv= 4.17D-04
     ILin= 1 X=0.000D+00 Y=-3.428023515169D+02 DE= 0.00D+00 F= -1.72D-03
     ILin= 2 X=7.000D-01 Y=-3.428031128318D+02 DE=-7.61D-04 F= -4.51D-04
     Reject lnstep minimum 1.166D+00 FVal=-3.428033349545D+02 Lims=  0.00D+00  7.00D-01
     ILin= 3 X=1.300D+00 Y=-3.428030556566D+02 DE=-7.04D-04 F=  6.41D-04
     An  expanding polynomial of degree  3 produced  0.9476
 Iteration   3 EE= -342.803168633667     Delta-E=       -0.000817116806 Grad=2.472D-02 Max rot=    0.1674 deg.
 Gradient too large for Newton-Raphson -- use scaled steepest descent instead.
 Alpha Gap=     1.923 HL deriv= 6.08D-04
     ILin= 1 X=0.000D+00 Y=-3.428031686337D+02 DE= 0.00D+00 F= -5.34D-04
     ILin= 2 X=1.200D+00 Y=-3.428034115958D+02 DE=-2.43D-04 F=  1.29D-04
     Accept linear search using points  1 and  2.
     An  expanding polynomial of degree  2 produced  1.0237
 Iteration   4 EE= -342.803425794741     Delta-E=       -0.000257161074 Grad=2.039D-02 Max rot=    0.1258 deg.
 Gradient too large for Newton-Raphson -- use scaled steepest descent instead.
 Alpha Gap=     1.923 HL deriv= 3.81D-04
     ILin= 1 X=0.000D+00 Y=-3.428034257947D+02 DE= 0.00D+00 F= -3.47D-04
     ILin= 2 X=1.000D+00 Y=-3.428035435164D+02 DE=-1.18D-04 F=  1.11D-04
     Accept linear search using points  1 and  2.
     An  expanding polynomial of degree  2 produced  0.7569
 Iteration   5 EE= -342.803557061919     Delta-E=       -0.000131267178 Grad=1.230D-02 Max rot=    0.0827 deg.
[...]
 ! Name  Definition              Value          Derivative Info.                !
 --------------------------------------------------------------------------------
 ! R1    R(1,2)                  1.4001         -DE/DX =    0.0                 !
 ! R2    R(1,7)                  0.9467         -DE/DX =    0.0                 !
 ! R3    R(2,3)                  1.5205         -DE/DX =    0.0                 !
 ! R4    R(2,8)                  1.0821         -DE/DX =    0.0                 !
 ! R5    R(2,9)                  1.0855         -DE/DX =    0.0                 !
 ! R6    R(3,4)                  1.4024         -DE/DX =    0.0                 !
 ! R7    R(3,5)                  1.528          -DE/DX =    0.0                 !
 ! R8    R(3,10)                 1.093          -DE/DX =    0.0                 !
 ! R9    R(4,11)                 0.9467         -DE/DX =    0.0                 !
 ! R10   R(5,6)                  1.4026         -DE/DX =    0.0                 !
 ! R11   R(5,12)                 1.0822         -DE/DX =    0.0                 !
 ! R12   R(5,13)                 1.0887         -DE/DX =    0.0                 !
 ! R13   R(6,14)                 0.9469         -DE/DX =    0.0                 !
 ! A1    A(2,1,7)              109.6027         -DE/DX =    0.0                 !
 ! A2    A(1,2,3)              113.0814         -DE/DX =    0.0                 !
 ! A3    A(1,2,8)              106.3961         -DE/DX =    0.0                 !
 ! A4    A(1,2,9)              111.2525         -DE/DX =    0.0                 !
 ! A5    A(3,2,8)              108.3598         -DE/DX =    0.0                 !
 ! A6    A(3,2,9)              109.2753         -DE/DX =    0.0                 !
 ! A7    A(8,2,9)              108.2954         -DE/DX =    0.0                 !
 ! A8    A(2,3,4)              107.7657         -DE/DX =    0.0                 !
 ! A9    A(2,3,5)              111.6271         -DE/DX =    0.0                 !
 ! A10   A(2,3,10)             108.5208         -DE/DX =    0.0                 !
 ! A11   A(4,3,5)              109.7731         -DE/DX =    0.0                 !
 ! A12   A(4,3,10)             110.3759         -DE/DX =    0.0                 !
 ! A13   A(5,3,10)             108.7702         -DE/DX =    0.0                 !
 ! A14   A(3,4,11)             110.2726         -DE/DX =    0.0                 !
 ! A15   A(3,5,6)              112.6704         -DE/DX =    0.0                 !
 ! A16   A(3,5,12)             109.507          -DE/DX =    0.0                 !
 ! A17   A(3,5,13)             109.3906         -DE/DX =    0.0                 !
 ! A18   A(6,5,12)             106.8417         -DE/DX =    0.0                 !
 ! A19   A(6,5,13)             111.0558         -DE/DX =    0.0                 !
 ! A20   A(12,5,13)            107.193          -DE/DX =    0.0                 !
 ! A21   A(5,6,14)             109.8101         -DE/DX =    0.0                 !
 ! D1    D(7,1,2,3)            -73.0358         -DE/DX =    0.0                 !
 ! D2    D(7,1,2,8)            168.1285         -DE/DX =    0.0                 !
 ! D3    D(7,1,2,9)             50.3833         -DE/DX =    0.0                 !
 ! D4    D(1,2,3,4)            -68.5922         -DE/DX =    0.0                 !
 ! D5    D(1,2,3,5)            170.7992         -DE/DX =    0.0                 !
 ! D6    D(1,2,3,10)            50.9403         -DE/DX =    0.0                 !
 ! D7    D(8,2,3,4)             49.1003         -DE/DX =    0.0                 !
 ! D8    D(8,2,3,5)            -71.5083         -DE/DX =    0.0                 !
 ! D9    D(8,2,3,10)           168.6329         -DE/DX =    0.0                 !
 ! D10   D(9,2,3,4)            166.9047         -DE/DX =    0.0                 !
 ! D11   D(9,2,3,5)             46.2962         -DE/DX =    0.0                 !
 ! D12   D(9,2,3,10)           -73.5627         -DE/DX =    0.0                 !
 ! D13   D(2,3,4,11)           163.6969         -DE/DX =    0.0                 !
 ! D14   D(5,3,4,11)           -74.5371         -DE/DX =    0.0                 !
 ! D15   D(10,3,4,11)           45.349          -DE/DX =    0.0                 !
 ! D16   D(2,3,5,6)            -65.7265         -DE/DX =    0.0                 !
 ! D17   D(2,3,5,12)            53.0296         -DE/DX =    0.0                 !
 ! D18   D(2,3,5,13)           170.2321         -DE/DX =    0.0                 !
 ! D19   D(4,3,5,6)            174.8457         -DE/DX =    0.0                 !
 ! D20   D(4,3,5,12)           -66.3982         -DE/DX =    0.0                 !
 ! D21   D(4,3,5,13)            50.8043         -DE/DX =    0.0                 !
 ! D22   D(10,3,5,6)            53.9854         -DE/DX =    0.0                 !
 ! D23   D(10,3,5,12)          172.7415         -DE/DX =    0.0                 !
 ! D24   D(10,3,5,13)          -70.056          -DE/DX =    0.0                 !
 ! D25   D(3,5,6,14)           -74.1207         -DE/DX =    0.0                 !
 ! D26   D(12,5,6,14)          165.5783         -DE/DX =    0.0                 !
 ! D27   D(13,5,6,14)           48.9967         -DE/DX =    0.0                 !
 --------------------------------------------------------------------------------
 Lowest energy point so far.  Saving SCF results.
 GradGradGradGradGradGradGradGradGradGradGradGradGradGradGradGradGradGrad

 Largest change from initial coordinates is atom    8       0.355 Angstoms.
 Leave Link  103 at Wed Sep 20 14:31:40 2023, MaxMem=    33554432 cpu:         0.0
 (Enter /mnt/storage/apps/eb/software/gaussian/09/l202.exe)
                          Input orientation:                          
 ---------------------------------------------------------------------
 Center     Atomic      Atomic             Coordinates (Angstroms)
 Number     Number       Type             X           Y           Z
 ---------------------------------------------------------------------
      1          8           0        2.304476    0.331459    0.661135
      2          6           0        1.264117    0.184843   -0.264243
      3          6           0       -0.042884   -0.258910    0.373585
      4          8           0        0.124571   -1.578130    0.819022
      5          6           0       -1.204429   -0.191271   -0.616955
      6          8           0       -1.500277    1.120866   -1.014365
      7          1           0        2.160166    1.109593    1.180608
      8          1           0        1.580503   -0.580376   -0.960827
      9          1           0        1.098543    1.103103   -0.818870
     10          1           0       -0.260199    0.402537    1.216113
     11          1           0       -0.559213   -1.806429    1.432727
     12          1           0       -0.947159   -0.739995   -1.513593
     13          1           0       -2.078051   -0.674979   -0.183160
     14          1           0       -1.940165    1.577692   -0.311176
 ---------------------------------------------------------------------
                    Distance matrix (angstroms):
                    1          2          3          4          5
     1  O    0.000000
     2  C    1.400061   0.000000
     3  C    2.437483   1.520523   0.000000
     4  O    2.902318   2.362224   1.402426   0.000000
     5  C    3.770832   2.521822   1.528047   2.398259   0.000000
     6  O    4.231621   3.013420   2.440119   3.644999   1.402557
     7  H    0.946662   1.935371   2.716158   3.390906   4.030382
     8  H    1.996583   1.082077   2.125884   2.506615   2.832931
     9  H    2.059156   1.085461   2.140065   3.289425   2.649500
    10  H    2.624997   2.135973   1.092974   2.056397   2.145767
    11  H    3.656041   3.188950   1.945044   0.946739   2.688165
    12  H    4.055933   2.702951   2.147230   2.700401   1.082241
    13  H    4.575183   3.451949   2.150577   2.582942   1.088746
    14  H    4.529400   3.494231   2.727944   3.936965   1.940113
                    6          7          8          9         10
     6  O    0.000000
     7  H    4.268124   0.000000
     8  H    3.519702   2.788862   0.000000
     9  H    2.606223   2.263846   1.756855   0.000000
    10  H    2.651193   2.521776   3.015522   2.545216   0.000000
    11  H    3.929748   3.995218   3.436669   4.035247   2.239612
    12  H    2.004488   4.509453   2.592317   2.839815   3.037860
    13  H    2.061501   4.796566   3.741489   3.695463   2.534480
    14  H    0.946925   4.388308   4.180241   3.117167   2.556538
                   11         12         13         14
    11  H    0.000000
    12  H    3.157307   0.000000
    13  H    2.489606   1.747340   0.000000
    14  H    4.049753   2.793482   2.260515   0.000000
 Stoichiometry    C3H8O3
 Framework group  C1[X(C3H8O3)]
 Deg. of freedom    36
 Full point group                 C1      NOp   1
 RotChk:  IX=0 Diff= 1.06D-15
 Largest Abelian subgroup         C1      NOp   1
 Largest concise Abelian subgroup C1      NOp   1
                         Standard orientation:                         
 ---------------------------------------------------------------------
 Center     Atomic      Atomic             Coordinates (Angstroms)
 Number     Number       Type             X           Y           Z
 ---------------------------------------------------------------------
      1          8           0        2.178735   -0.716851   -0.139440
      2          6           0        0.902079   -0.642931    0.430521
      3          6           0        0.004243    0.379027   -0.248806
      4          8           0        0.513792    1.653811    0.037697
      5          6           0       -1.438708    0.276473    0.243438
      6          8           0       -2.047162   -0.935466   -0.114548
      7          1           0        2.126870   -1.149997   -0.979596
      8          1           0        1.044139   -0.341004    1.459865
      9          1           0        0.411627   -1.611250    0.424035
     10          1           0        0.022235    0.195296   -1.326076
     11          1           0        0.147491    2.294403   -0.555413
     12          1           0       -1.456427    0.328986    1.324259
     13          1           0       -2.009041    1.125628   -0.129417
     14          1           0       -2.255498   -0.929416   -1.038250
 ---------------------------------------------------------------------
 Rotational constants (GHZ):      5.1794088      2.3893600      1.7784937
 Leave Link  202 at Wed Sep 20 14:31:40 2023, MaxMem=    33554432 cpu:         0.0
 (Enter /mnt/storage/apps/eb/software/gaussian/09/l601.exe)
 Copying SCF densities to generalized density rwf, IOpCl= 0 IROHF=0.

 **********************************************************************

            Population analysis using the SCF density.

 **********************************************************************

 Orbital symmetries:
       Occupied  (A) (A) (A) (A) (A) (A) (A) (A) (A) (A) (A) (A)
                 (A) (A) (A) (A) (A) (A) (A) (A) (A) (A) (A) (A)
                 (A)
       Virtual   (A) (A) (A) (A) (A) (A) (A) (A) (A) (A) (A) (A)
                 (A) (A) (A) (A) (A) (A) (A) (A) (A) (A) (A) (A)
                 (A) (A) (A) (A) (A) (A) (A) (A) (A) (A) (A) (A)
                 (A) (A) (A) (A) (A) (A) (A) (A) (A) (A) (A) (A)
                 (A) (A) (A) (A) (A) (A) (A) (A) (A) (A) (A) (A)
                 (A) (A) (A) (A) (A) (A) (A) (A) (A) (A) (A) (A)
                 (A) (A) (A) (A) (A) (A) (A) (A) (A)
 The electronic state is 1-A.
 Alpha  occ. eigenvalues --  -20.57129 -20.56431 -20.55294 -11.28120 -11.27905
 Alpha  occ. eigenvalues --  -11.26581  -1.38596  -1.37208  -1.35495  -1.03126
 Alpha  occ. eigenvalues --   -0.92256  -0.82611  -0.72887  -0.71423  -0.68347
 Alpha  occ. eigenvalues --   -0.63801  -0.60732  -0.60177  -0.57900  -0.53338
 Alpha  occ. eigenvalues --   -0.51542  -0.49212  -0.48005  -0.44242  -0.41468
 Alpha virt. eigenvalues --    0.20425   0.22117   0.23334   0.27542   0.30644
 Alpha virt. eigenvalues --    0.31618   0.32748   0.34435   0.38597   0.43004
 Alpha virt. eigenvalues --    0.43949   0.46190   0.48593   0.74854   0.79498
 Alpha virt. eigenvalues --    0.80455   0.82187   0.83377   0.89581   0.93733
 Alpha virt. eigenvalues --    0.95834   0.97477   1.04506   1.07838   1.08817
 Alpha virt. eigenvalues --    1.11592   1.14419   1.15521   1.17662   1.17969
 Alpha virt. eigenvalues --    1.19942   1.22279   1.26658   1.29707   1.31761
 Alpha virt. eigenvalues --    1.32953   1.36142   1.40906   1.43476   1.48695
 Alpha virt. eigenvalues --    1.60143   1.65430   1.71560   1.74489   1.81551
 Alpha virt. eigenvalues --    1.86446   1.90441   1.90952   2.00186   2.02816
 Alpha virt. eigenvalues --    2.05485   2.09437   2.14712   2.16401   2.23342
 Alpha virt. eigenvalues --    2.28082   2.40085   2.41319   2.44730   2.46338
 Alpha virt. eigenvalues --    2.49532   2.54661   2.62436   2.67629   2.71927
 Alpha virt. eigenvalues --    2.77194   2.81044   2.85834   2.92410   2.94978
 Alpha virt. eigenvalues --    3.03235   3.13775   3.23330   3.26601   3.30935
 Alpha virt. eigenvalues --    4.12019   4.21982   4.29676   4.65153   4.78070
 Alpha virt. eigenvalues --    4.96954
          Condensed to atoms (all electrons):
               1          2          3          4          5          6
     1  O    8.365353   0.220253  -0.046840   0.003651   0.002714  -0.000001
     2  C    0.220253   4.807321   0.343500  -0.055840  -0.053852  -0.000947
     3  C   -0.046840   0.343500   4.949066   0.183552   0.333932  -0.044533
     4  O    0.003651  -0.055840   0.183552   8.410175  -0.044284   0.001787
     5  C    0.002714  -0.053852   0.333932  -0.044284   4.898156   0.181454
     6  O   -0.000001  -0.000947  -0.044533   0.001787   0.181454   8.394552
     7  H    0.261158  -0.026217  -0.003360  -0.000054  -0.000119   0.000015
     8  H   -0.035154   0.397328  -0.043501   0.000359  -0.003044   0.000325
     9  H   -0.035467   0.402050  -0.059492   0.003111   0.001662   0.006357
    10  H   -0.000310  -0.047510   0.390981  -0.034510  -0.057638   0.003962
    11  H   -0.000329   0.006523  -0.020953   0.260839  -0.003104  -0.000016
    12  H   -0.000010  -0.006280  -0.044221   0.004410   0.397692  -0.034134
    13  H   -0.000060   0.005033  -0.052769   0.004085   0.395483  -0.032284
    14  H   -0.000008  -0.000206  -0.002935  -0.000017  -0.024659   0.260791
               7          8          9         10         11         12
     1  O    0.261158  -0.035154  -0.035467  -0.000310  -0.000329  -0.000010
     2  C   -0.026217   0.397328   0.402050  -0.047510   0.006523  -0.006280
     3  C   -0.003360  -0.043501  -0.059492   0.390981  -0.020953  -0.044221
     4  O   -0.000054   0.000359   0.003111  -0.034510   0.260839   0.004410
     5  C   -0.000119  -0.003044   0.001662  -0.057638  -0.003104   0.397692
     6  O    0.000015   0.000325   0.006357   0.003962  -0.000016  -0.034134
     7  H    0.332687   0.005657  -0.005348   0.003471  -0.000010   0.000010
     8  H    0.005657   0.515146  -0.028430   0.005114  -0.000220   0.003386
     9  H   -0.005348  -0.028430   0.547818   0.000289  -0.000190  -0.000029
    10  H    0.003471   0.005114   0.000289   0.617204  -0.005947   0.005325
    11  H   -0.000010  -0.000220  -0.000190  -0.005947   0.320603  -0.000339
    12  H    0.000010   0.003386  -0.000029   0.005325  -0.000339   0.515876
    13  H    0.000000  -0.000227   0.000211  -0.004304   0.003393  -0.033047
    14  H   -0.000003   0.000013  -0.000040   0.003642  -0.000012   0.005575
              13         14
     1  O   -0.000060  -0.000008
     2  C    0.005033  -0.000206
     3  C   -0.052769  -0.002935
     4  O    0.004085  -0.000017
     5  C    0.395483  -0.024659
     6  O   -0.032284   0.260791
     7  H    0.000000  -0.000003
     8  H   -0.000227   0.000013
     9  H    0.000211  -0.000040
    10  H   -0.004304   0.003642
    11  H    0.003393  -0.000012
    12  H   -0.033047   0.005575
    13  H    0.579476  -0.005823
    14  H   -0.005823   0.325631
 Mulliken charges:
               1
     1  O   -0.734951
     2  C    0.008843
     3  C    0.117572
     4  O   -0.737265
     5  C   -0.024393
     6  O   -0.737327
     7  H    0.432114
     8  H    0.183249
     9  H    0.167498
    10  H    0.120230
    11  H    0.439763
    12  H    0.185784
    13  H    0.140833
    14  H    0.438050
 Sum of Mulliken charges =   0.00000
 Mulliken charges with hydrogens summed into heavy atoms:
               1
     1  O   -0.302837
     2  C    0.359591
     3  C    0.237802
     4  O   -0.297502
     5  C    0.302224
     6  O   -0.299277
 Electronic spatial extent (au):  <R**2>=            677.2149
 Charge=              0.0000 electrons
 Dipole moment (field-independent basis, Debye):
    X=             -2.3207    Y=              0.4081    Z=             -3.1708  Tot=              3.9505
 Quadrupole moment (field-independent basis, Debye-Ang):
   XX=            -44.1969   YY=            -35.2718   ZZ=            -31.0382
   XY=             -5.0414   XZ=              0.9026   YZ=              0.2644
 Traceless Quadrupole moment (field-independent basis, Debye-Ang):
   XX=             -7.3613   YY=              1.5638   ZZ=              5.7975
   XY=             -5.0414   XZ=              0.9026   YZ=              0.2644
 Octapole moment (field-independent basis, Debye-Ang**2):
  XXX=            -11.6132  YYY=              8.8060  ZZZ=             -5.9212  XYY=              1.4689
  XXY=              3.2432  XXZ=            -14.6627  XZZ=             -0.3080  YZZ=             -3.0259
  YYZ=            -11.8259  XYZ=              0.0221
 Hexadecapole moment (field-independent basis, Debye-Ang**3):
 XXXX=           -536.8673 YYYY=           -195.4049 ZZZZ=            -65.2177 XXXY=             -3.5326
 XXXZ=              7.8844 YYYX=             -8.0476 YYYZ=             -9.8504 ZZZX=              1.3265
 ZZZY=              5.4184 XXYY=           -124.2329 XXZZ=            -71.6361 YYZZ=            -43.2575
 XXYZ=             18.2317 YYXZ=             -2.1277 ZZXY=              0.6823
 N-N= 2.618669624294D+02 E-N=-1.331945277228D+03  KE= 3.422790926328D+02
 No NMR shielding tensors so no spin-rotation constants.
 Leave Link  601 at Wed Sep 20 14:31:40 2023, MaxMem=    33554432 cpu:         0.1
 (Enter /mnt/storage/apps/eb/software/gaussian/09/l9999.exe)
 1\1\GINC-SB084\FOpt\RHF\6-31G(d)\C3H8O3\NCA121\20-Sep-2023\0\\#P hf/6-
 31G* scf(qc) opt(tight,maxcycle=100)\\Gaussian input prepared by ASE\\
 0,1\O,2.3044764544,0.3314594614,0.6611353501\C,1.2641166419,0.18484301
 25,-0.2642428416\C,-0.0428841616,-0.2589097055,0.3735845311\O,0.124570
 6691,-1.5781298705,0.8190218723\C,-1.2044287442,-0.1912714329,-0.61695
 4592\O,-1.5002773263,1.1208662847,-1.0143654291\H,2.1601659306,1.10959
 25357,1.1806082087\H,1.5805034929,-0.5803762999,-0.9608274806\H,1.0985
 426856,1.1031028084,-0.8188695817\H,-0.2601986884,0.4025370822,1.21611
 27698\H,-0.5592127679,-1.8064294218,1.432726729\H,-0.9471592724,-0.739
 9953462,-1.5135933132\H,-2.0780509942,-0.6749790059,-0.1831596023\H,-1
 .9401649196,1.577691898,-0.3111756205\\Version=ES64L-G09RevD.01\State=
 1-A\HF=-342.804416\RMSD=0.000e+00\RMSF=5.133e-07\Dipole=-1.2184559,0.5
 75325,0.7745894\Quadrupole=-1.8655609,1.019475,0.8460859,2.9908612,-4.
 282359,3.0947628\PG=C01 [X(C3H8O3)]\\@


 IF YOU WISH TO UNDERSTAND THE FRAGRANCE OF THE ROSE, 
 OR THE TENACITY OF THE OAK; 
 IF YOU ARE NOT SATISFIED UNTIL YOU KNOW THE SECRET PATHS 
 BY WHICH THE SUNSHINE AND THE AIR ACHIEVE THESE WONDERS; 
 IF YOU WISH TO SEE THE PATTERN WHICH UNDERLIES ONE LARGE FIELD OF 
 HUMAN EXPERIENCE AND HUMAN MEASUREMENT, THEN TAKE UP CHEMISTRY.

                                         -- C. A. COULSON, 1973.
 Job cpu time:       0 days  0 hours  0 minutes 56.6 seconds.
 File lengths (MBytes):  RWF=      6 Int=      0 D2E=      0 Chk=      2 Scr=      1
 Normal termination of Gaussian 09 at Wed Sep 20 14:31:41 2023.
