 Entering Gaussian System, Link 0=g09
 Initial command:
 /mnt/storage/apps/eb/software/gaussian/09/l1.exe "/scratch/nca121/18446470/Gau-720.inp" -scrdir="/scratch/nca121/18446470/"
 Entering Link 1 = /mnt/storage/apps/eb/software/gaussian/09/l1.exe PID=       721.
  
 Copyright (c) 1988,1990,1992,1993,1995,1998,2003,2009,2013,
            Gaussian, Inc.  All Rights Reserved.
  
 This is part of the Gaussian(R) 09 program.  It is based on
 the Gaussian(R) 03 system (copyright 2003, Gaussian, Inc.),
 the Gaussian(R) 98 system (copyright 1998, Gaussian, Inc.),
 the Gaussian(R) 94 system (copyright 1995, Gaussian, Inc.),
 the Gaussian 92(TM) system (copyright 1992, Gaussian, Inc.),
 the Gaussian 90(TM) system (copyright 1990, Gaussian, Inc.),
 the Gaussian 88(TM) system (copyright 1988, Gaussian, Inc.),
 the Gaussian 86(TM) system (copyright 1986, Carnegie Mellon
 University), and the Gaussian 82(TM) system (copyright 1983,
 Carnegie Mellon University). Gaussian is a federally registered
 trademark of Gaussian, Inc.
  
 This software contains proprietary and confidential information,
 including trade secrets, belonging to Gaussian, Inc.
  
 This software is provided under written license and may be
 used, copied, transmitted, or stored only in accord with that
 written license.
  
 The following legend is applicable only to US Government
 contracts under FAR:
  
                    RESTRICTED RIGHTS LEGEND
  
 Use, reproduction and disclosure by the US Government is
 subject to restrictions as set forth in subparagraphs (a)
 and (c) of the Commercial Computer Software - Restricted
 Rights clause in FAR 52.227-19.
  
 Gaussian, Inc.
 340 Quinnipiac St., Bldg. 40, Wallingford CT 06492
  
  
 ---------------------------------------------------------------
 Warning -- This program may not be used in any manner that
 competes with the business of Gaussian, Inc. or will provide
 assistance to any competitor of Gaussian, Inc.  The licensee
 of this program is prohibited from giving any competitor of
 Gaussian, Inc. access to this program.  By using this program,
 the user acknowledges that Gaussian, Inc. is engaged in the
 business of creating and licensing software in the field of
 computational chemistry and represents and warrants to the
 licensee that it is not a competitor of Gaussian, Inc. and that
 it will not use this program in any manner prohibited above.
 ---------------------------------------------------------------
  

 Cite this work as:
 Gaussian 09, Revision D.01,
 M. J. Frisch, G. W. Trucks, H. B. Schlegel, G. E. Scuseria, 
 M. A. Robb, J. R. Cheeseman, G. Scalmani, V. Barone, B. Mennucci, 
 G. A. Petersson, H. Nakatsuji, M. Caricato, X. Li, H. P. Hratchian, 
 A. F. Izmaylov, J. Bloino, G. Zheng, J. L. Sonnenberg, M. Hada, 
 M. Ehara, K. Toyota, R. Fukuda, J. Hasegawa, M. Ishida, T. Nakajima, 
 Y. Honda, O. Kitao, H. Nakai, T. Vreven, J. A. Montgomery, Jr., 
 J. E. Peralta, F. Ogliaro, M. Bearpark, J. J. Heyd, E. Brothers, 
 K. N. Kudin, V. N. Staroverov, T. Keith, R. Kobayashi, J. Normand, 
 K. Raghavachari, A. Rendell, J. C. Burant, S. S. Iyengar, J. Tomasi, 
 M. Cossi, N. Rega, J. M. Millam, M. Klene, J. E. Knox, J. B. Cross, 
 V. Bakken, C. Adamo, J. Jaramillo, R. Gomperts, R. E. Stratmann, 
 O. Yazyev, A. J. Austin, R. Cammi, C. Pomelli, J. W. Ochterski, 
 R. L. Martin, K. Morokuma, V. G. Zakrzewski, G. A. Voth, 
 P. Salvador, J. J. Dannenberg, S. Dapprich, A. D. Daniels, 
 O. Farkas, J. B. Foresman, J. V. Ortiz, J. Cioslowski, 
 and D. J. Fox, Gaussian, Inc., Wallingford CT, 2013.
 
 ******************************************
 Gaussian 09:  ES64L-G09RevD.01 24-Apr-2013
                20-Sep-2023 
 ******************************************
 --------------------------------------------
 #P hf/6-31G* scf(qc) opt(tight,maxcycle=100)
 --------------------------------------------
 1/6=100,7=10,18=20,19=15,38=1/1,3;
 2/9=110,12=2,17=6,18=5,40=1/2;
 3/5=1,6=6,7=1,11=9,16=1,25=1,30=1,71=1/1,2,3;
 4//1;
 5/5=2,8=3,38=5/8;
 6/7=2,8=2,9=2,10=2,28=1/1;
 7//1,2,3,16;
 1/6=100,7=10,18=20,19=15/3(2);
 2/9=110/2;
 99//99;
 2/9=110/2;
 3/5=1,6=6,7=1,11=9,16=1,25=1,30=1,71=1/1,2,3;
 4/5=5,16=3,69=1/1;
 5/5=2,8=3,38=5/8;
 7//1,2,3,16;
 1/6=100,7=10,18=20,19=15/3(-5);
 2/9=110/2;
 6/7=2,8=2,9=2,10=2,19=2,28=1/1;
 99/9=1/99;
 Leave Link    1 at Wed Sep 20 14:29:35 2023, MaxMem=           0 cpu:         0.0
 (Enter /mnt/storage/apps/eb/software/gaussian/09/l101.exe)
 ------------------------------
 Gaussian input prepared by ASE
 ------------------------------
 Symbolic Z-matrix:
 Charge =  0 Multiplicity = 1
 O                     2.37303  -0.12259  -0.00303 
 C                     1.10064  -0.21247   0.52659 
 C                     0.02766   0.10377  -0.50538 
 O                     0.28621   1.4235   -0.92943 
 C                    -1.33086   0.11924   0.13008 
 O                    -1.73377  -1.11796   0.60332 
 H                     2.39258  -0.47239  -0.91927 
 H                     0.9861   -1.24365   0.92607 
 H                     1.03904   0.50425   1.36457 
 H                     0.11138  -0.56418  -1.37048 
 H                     0.04165   1.99361  -0.14141 
 H                    -1.2656    0.79332   1.02082 
 H                    -2.06929   0.54808  -0.56927 
 H                    -1.95877  -1.75253  -0.13319 
 
 NAtoms=     14 NQM=       14 NQMF=       0 NMMI=      0 NMMIF=      0
                NMic=       0 NMicF=      0.
                    Isotopes and Nuclear Properties:
 (Nuclear quadrupole moments (NQMom) in fm**2, nuclear magnetic moments (NMagM)
  in nuclear magnetons)

  Atom         1           2           3           4           5           6           7           8           9          10
 IAtWgt=          16          12          12          16          12          16           1           1           1           1
 AtmWgt=  15.9949146  12.0000000  12.0000000  15.9949146  12.0000000  15.9949146   1.0078250   1.0078250   1.0078250   1.0078250
 NucSpn=           0           0           0           0           0           0           1           1           1           1
 AtZEff=   0.0000000   0.0000000   0.0000000   0.0000000   0.0000000   0.0000000   0.0000000   0.0000000   0.0000000   0.0000000
 NQMom=    0.0000000   0.0000000   0.0000000   0.0000000   0.0000000   0.0000000   0.0000000   0.0000000   0.0000000   0.0000000
 NMagM=    0.0000000   0.0000000   0.0000000   0.0000000   0.0000000   0.0000000   2.7928460   2.7928460   2.7928460   2.7928460
 AtZNuc=   8.0000000   6.0000000   6.0000000   8.0000000   6.0000000   8.0000000   1.0000000   1.0000000   1.0000000   1.0000000

  Atom        11          12          13          14
 IAtWgt=           1           1           1           1
 AtmWgt=   1.0078250   1.0078250   1.0078250   1.0078250
 NucSpn=           1           1           1           1
 AtZEff=   0.0000000   0.0000000   0.0000000   0.0000000
 NQMom=    0.0000000   0.0000000   0.0000000   0.0000000
 NMagM=    2.7928460   2.7928460   2.7928460   2.7928460
 AtZNuc=   1.0000000   1.0000000   1.0000000   1.0000000
 Leave Link  101 at Wed Sep 20 14:29:35 2023, MaxMem=    33554432 cpu:         0.1
 (Enter /mnt/storage/apps/eb/software/gaussian/09/l103.exe)

 GradGradGradGradGradGradGradGradGradGradGradGradGradGradGradGradGradGrad
 Berny optimization.
 Initialization pass.
                           ----------------------------
                           !    Initial Parameters    !
                           ! (Angstroms and Degrees)  !
 --------------------------                            --------------------------
 ! Name  Definition              Value          Derivative Info.                !
 --------------------------------------------------------------------------------
 ! R1    R(1,2)                  1.3811         estimate D2E/DX2                !
 ! R2    R(1,7)                  0.9809         estimate D2E/DX2                !
 ! R3    R(2,3)                  1.5219         estimate D2E/DX2                !
 ! R4    R(2,8)                  1.1118         estimate D2E/DX2                !
 ! R5    R(2,9)                  1.1044         estimate D2E/DX2                !
 ! R6    R(3,4)                  1.4101         estimate D2E/DX2                !
 ! R7    R(3,5)                  1.4999         estimate D2E/DX2                !
 ! R8    R(3,10)                 1.0962         estimate D2E/DX2                !
 ! R9    R(4,11)                 1.0029         estimate D2E/DX2                !
 ! R10   R(5,6)                  1.3845         estimate D2E/DX2                !
 ! R11   R(5,12)                 1.119          estimate D2E/DX2                !
 ! R12   R(5,13)                 1.1038         estimate D2E/DX2                !
 ! R13   R(6,14)                 0.9979         estimate D2E/DX2                !
 ! A1    A(2,1,7)              110.6904         estimate D2E/DX2                !
 ! A2    A(1,2,3)              112.084          estimate D2E/DX2                !
 ! A3    A(1,2,8)              107.0409         estimate D2E/DX2                !
 ! A4    A(1,2,9)              107.4639         estimate D2E/DX2                !
 ! A5    A(3,2,8)              111.3299         estimate D2E/DX2                !
 ! A6    A(3,2,9)              109.8971         estimate D2E/DX2                !
 ! A7    A(8,2,9)              108.8771         estimate D2E/DX2                !
 ! A8    A(2,3,4)              105.6119         estimate D2E/DX2                !
 ! A9    A(2,3,5)              110.6973         estimate D2E/DX2                !
 ! A10   A(2,3,10)             110.7739         estimate D2E/DX2                !
 ! A11   A(4,3,5)              106.4888         estimate D2E/DX2                !
 ! A12   A(4,3,10)             108.6003         estimate D2E/DX2                !
 ! A13   A(5,3,10)             114.1944         estimate D2E/DX2                !
 ! A14   A(3,4,11)             104.5389         estimate D2E/DX2                !
 ! A15   A(3,5,6)              113.527          estimate D2E/DX2                !
 ! A16   A(3,5,12)             106.8972         estimate D2E/DX2                !
 ! A17   A(3,5,13)             109.9704         estimate D2E/DX2                !
 ! A18   A(6,5,12)             106.4508         estimate D2E/DX2                !
 ! A19   A(6,5,13)             111.6573         estimate D2E/DX2                !
 ! A20   A(12,5,13)            108.0194         estimate D2E/DX2                !
 ! A21   A(5,6,14)             112.4321         estimate D2E/DX2                !
 ! D1    D(7,1,2,3)            -38.5402         estimate D2E/DX2                !
 ! D2    D(7,1,2,8)             83.7985         estimate D2E/DX2                !
 ! D3    D(7,1,2,9)           -159.3821         estimate D2E/DX2                !
 ! D4    D(1,2,3,4)            -59.9929         estimate D2E/DX2                !
 ! D5    D(1,2,3,5)           -174.8656         estimate D2E/DX2                !
 ! D6    D(1,2,3,10)            57.4077         estimate D2E/DX2                !
 ! D7    D(8,2,3,4)           -179.857          estimate D2E/DX2                !
 ! D8    D(8,2,3,5)             65.2702         estimate D2E/DX2                !
 ! D9    D(8,2,3,10)           -62.4564         estimate D2E/DX2                !
 ! D10   D(9,2,3,4)             59.4317         estimate D2E/DX2                !
 ! D11   D(9,2,3,5)            -55.441          estimate D2E/DX2                !
 ! D12   D(9,2,3,10)           176.8323         estimate D2E/DX2                !
 ! D13   D(2,3,4,11)           -70.5576         estimate D2E/DX2                !
 ! D14   D(5,3,4,11)            47.1797         estimate D2E/DX2                !
 ! D15   D(10,3,4,11)          170.5868         estimate D2E/DX2                !
 ! D16   D(2,3,5,6)            -65.6706         estimate D2E/DX2                !
 ! D17   D(2,3,5,12)            51.398          estimate D2E/DX2                !
 ! D18   D(2,3,5,13)           168.4222         estimate D2E/DX2                !
 ! D19   D(4,3,5,6)           -179.9922         estimate D2E/DX2                !
 ! D20   D(4,3,5,12)           -62.9236         estimate D2E/DX2                !
 ! D21   D(4,3,5,13)            54.1006         estimate D2E/DX2                !
 ! D22   D(10,3,5,6)            60.1618         estimate D2E/DX2                !
 ! D23   D(10,3,5,12)          177.2304         estimate D2E/DX2                !
 ! D24   D(10,3,5,13)          -65.7454         estimate D2E/DX2                !
 ! D25   D(3,5,6,14)           -71.6108         estimate D2E/DX2                !
 ! D26   D(12,5,6,14)          171.0604         estimate D2E/DX2                !
 ! D27   D(13,5,6,14)           53.3959         estimate D2E/DX2                !
 --------------------------------------------------------------------------------
 Trust Radius=3.00D-01 FncErr=1.00D-07 GrdErr=1.00D-07
 Number of steps in this run=    100 maximum allowed number of steps=    100.
 GradGradGradGradGradGradGradGradGradGradGradGradGradGradGradGradGradGrad

 Leave Link  103 at Wed Sep 20 14:29:35 2023, MaxMem=    33554432 cpu:         0.0
 (Enter /mnt/storage/apps/eb/software/gaussian/09/l202.exe)
                          Input orientation:                          
 ---------------------------------------------------------------------
 Center     Atomic      Atomic             Coordinates (Angstroms)
 Number     Number       Type             X           Y           Z
 ---------------------------------------------------------------------
      1          8           0        2.373032   -0.122586   -0.003026
      2          6           0        1.100635   -0.212468    0.526589
      3          6           0        0.027663    0.103765   -0.505379
      4          8           0        0.286206    1.423496   -0.929430
      5          6           0       -1.330855    0.119238    0.130080
      6          8           0       -1.733772   -1.117957    0.603320
      7          1           0        2.392577   -0.472390   -0.919265
      8          1           0        0.986100   -1.243649    0.926070
      9          1           0        1.039040    0.504248    1.364568
     10          1           0        0.111383   -0.564179   -1.370478
     11          1           0        0.041654    1.993610   -0.141413
     12          1           0       -1.265598    0.793322    1.020819
     13          1           0       -2.069293    0.548077   -0.569269
     14          1           0       -1.958771   -1.752527   -0.133185
 ---------------------------------------------------------------------
                    Distance matrix (angstroms):
                    1          2          3          4          5
     1  O    0.000000
     2  C    1.381146   0.000000
     3  C    2.409222   1.521917   0.000000
     4  O    2.757433   2.336592   1.410090   0.000000
     5  C    3.714159   2.485838   1.499873   2.332067   0.000000
     6  O    4.268988   2.976518   2.413394   3.590072   1.384540
     7  H    0.980938   1.956315   2.469023   2.833952   3.913450
     8  H    2.010866   1.111772   2.187046   3.323612   2.803452
     9  H    2.010664   1.104393   2.163324   2.583448   2.699740
    10  H    2.679550   2.168221   1.096154   2.043511   2.190613
    11  H    3.151628   2.536621   1.924625   1.002899   2.338966
    12  H    3.889315   2.618193   2.115962   2.570736   1.118957
    13  H    4.528208   3.439154   2.144463   2.538592   1.103758
    14  H    4.630137   3.488130   2.744133   3.970019   1.991756
                    6          7          8          9         10
     6  O    0.000000
     7  H    4.445422   0.000000
     8  H    2.741837   2.445052   0.000000
     9  H    3.301444   2.828741   1.802839   0.000000
    10  H    2.758105   2.327201   2.549694   3.079377   0.000000
    11  H    3.659045   3.494717   3.537138   2.341144   2.838617
    12  H    2.011586   4.329919   3.037824   2.347996   3.075254
    13  H    2.064754   4.590439   3.844704   3.661063   2.575732
    14  H    0.997869   4.603358   3.170685   4.040194   2.688606
                   11         12         13         14
    11  H    0.000000
    12  H    2.121410   0.000000
    13  H    2.593978   1.798458   0.000000
    14  H    4.246800   2.879854   2.344176   0.000000
 Stoichiometry    C3H8O3
 Framework group  C1[X(C3H8O3)]
 Deg. of freedom    36
 Full point group                 C1      NOp   1
 Largest Abelian subgroup         C1      NOp   1
 Largest concise Abelian subgroup C1      NOp   1
                         Standard orientation:                         
 ---------------------------------------------------------------------
 Center     Atomic      Atomic             Coordinates (Angstroms)
 Number     Number       Type             X           Y           Z
 ---------------------------------------------------------------------
      1          8           0        2.161019   -0.688947   -0.053326
      2          6           0        0.842537   -0.716526    0.357049
      3          6           0       -0.004395    0.318955   -0.368702
      4          8           0        0.575261    1.566880   -0.060424
      5          6           0       -1.397427    0.347837    0.186498
      6          8           0       -2.105913   -0.820459   -0.037294
      7          1           0        2.219965   -0.532105   -1.019848
      8          1           0        0.466046   -1.746602    0.174742
      9          1           0        0.829339   -0.518322    1.443431
     10          1           0        0.043832    0.169477   -1.453546
     11          1           0        0.360067    1.712010    0.908304
     12          1           0       -1.303035    0.453512    1.296447
     13          1           0       -1.937401    1.231286   -0.195900
     14          1           0       -2.366038   -0.930641   -0.994341
 ---------------------------------------------------------------------
 Rotational constants (GHZ):      5.7297040      2.3776609      1.8327805
 Leave Link  202 at Wed Sep 20 14:29:35 2023, MaxMem=    33554432 cpu:         0.0
 (Enter /mnt/storage/apps/eb/software/gaussian/09/l301.exe)
 Standard basis: 6-31G(d) (6D, 7F)
 Ernie: Thresh=  0.10000D-02 Tol=  0.10000D-05 Strict=F.
 There are   106 symmetry adapted cartesian basis functions of A   symmetry.
 There are   106 symmetry adapted basis functions of A   symmetry.
   106 basis functions,   200 primitive gaussians,   106 cartesian basis functions
    25 alpha electrons       25 beta electrons
       nuclear repulsion energy       264.2655351490 Hartrees.
 IExCor=    0 DFT=F Ex=HF Corr=None ExCW=0 ScaHFX=  1.000000
 ScaDFX=  1.000000  1.000000  1.000000  1.000000 ScalE2=  1.000000  1.000000
 IRadAn=      0 IRanWt=     -1 IRanGd=            0 ICorTp=0 IEmpDi=  4
 NAtoms=   14 NActive=   14 NUniq=   14 SFac= 1.00D+00 NAtFMM=   60 NAOKFM=F Big=F
 Integral buffers will be    131072 words long.
 Raffenetti 1 integral format.
 Two-electron integral symmetry is turned on.
 Leave Link  301 at Wed Sep 20 14:29:35 2023, MaxMem=    33554432 cpu:         0.0
 (Enter /mnt/storage/apps/eb/software/gaussian/09/l302.exe)
 NPDir=0 NMtPBC=     1 NCelOv=     1 NCel=       1 NClECP=     1 NCelD=      1
         NCelK=      1 NCelE2=     1 NClLst=     1 CellRange=     0.0.
 One-electron integrals computed using PRISM.
 NBasis=   106 RedAO= T EigKep=  2.79D-03  NBF=   106
 NBsUse=   106 1.00D-06 EigRej= -1.00D+00 NBFU=   106
 Leave Link  302 at Wed Sep 20 14:29:35 2023, MaxMem=    33554432 cpu:         0.1
 (Enter /mnt/storage/apps/eb/software/gaussian/09/l303.exe)
 DipDrv:  MaxL=1.
 Leave Link  303 at Wed Sep 20 14:29:35 2023, MaxMem=    33554432 cpu:         0.0
 (Enter /mnt/storage/apps/eb/software/gaussian/09/l401.exe)
 ExpMin= 1.61D-01 ExpMax= 5.48D+03 ExpMxC= 8.25D+02 IAcc=1 IRadAn=         1 AccDes= 0.00D+00
 Harris functional with IExCor=  205 and IRadAn=       1 diagonalized for initial guess.
 HarFok:  IExCor=  205 AccDes= 0.00D+00 IRadAn=         1 IDoV= 1 UseB2=F ITyADJ=14
 ICtDFT=  3500011 ScaDFX=  1.000000  1.000000  1.000000  1.000000
 FoFCou: FMM=F IPFlag=           0 FMFlag=      100000 FMFlg1=           0
         NFxFlg=           0 DoJE=T BraDBF=F KetDBF=T FulRan=T
         wScrn=  0.000000 ICntrl=     500 IOpCl=  0 I1Cent=   200000004 NGrid=           0
         NMat0=    1 NMatS0=      1 NMatT0=    0 NMatD0=    1 NMtDS0=    0 NMtDT0=    0
 Petite list used in FoFCou.
 Harris En= -343.187802927353    
 JPrj=0 DoOrth=F DoCkMO=F.
 Leave Link  401 at Wed Sep 20 14:29:36 2023, MaxMem=    33554432 cpu:         0.3
 (Enter /mnt/storage/apps/eb/software/gaussian/09/l508.exe)
 Direct SCF.
 Tight linear equation convergence will be used.
 RHF wavefunction.
 Quadratic Convergence SCF Method.
 Line search only if initial step raises energy.
 Integral symmetry usage will be decided dynamically.
 ReadGW:  IGet=1 IStart=         402 Next=         402 LGW=           0.
 Keep R1 ints in memory in canonical form, NReq=17056873.
 FoFCou: FMM=F IPFlag=           0 FMFlag=           0 FMFlg1=           0
         NFxFlg=           0 DoJE=F BraDBF=F KetDBF=F FulRan=T
         wScrn=  0.000000 ICntrl=     600 IOpCl=  0 I1Cent=           0 NGrid=           0
         NMat0=    1 NMatS0=   5671 NMatT0=    0 NMatD0=    1 NMtDS0=    0 NMtDT0=    0
 Symmetry not used in FoFCou.
 Iteration   1 EE= -342.538003378516                                    Grad=9.326D-01 Max rot=    8.2053 deg.
 Gradient too large for Newton-Raphson -- use scaled steepest descent instead.
 Alpha Gap=     0.609 HL deriv= 1.29D-02
     ILin= 1 X=0.000D+00 Y=-3.425380033785D+02 DE= 0.00D+00 F= -6.83D-01
     ILin= 2 X=3.000D-01 Y=-3.426986680997D+02 DE=-1.61D-01 F= -3.87D-01
     ILin= 3 X=5.000D-01 Y=-3.427561265647D+02 DE=-2.18D-01 F= -1.87D-01
     ILin= 4 X=9.000D-01 Y=-3.427507593436D+02 DE=-2.13D-01 F=  2.14D-01
     An  expanding polynomial of degree  4 produced  0.6869
 Iteration   2 EE= -342.773622823328     Delta-E=       -0.235619444812 Grad=2.956D-01 Max rot=    3.5338 deg.
 Gradient too large for Newton-Raphson -- use scaled steepest descent instead.
 Alpha Gap=     0.666 HL deriv= 2.25D-03
     ILin= 1 X=0.000D+00 Y=-3.427736228233D+02 DE= 0.00D+00 F= -2.82D-02
     ILin= 2 X=5.000D-01 Y=-3.427836961658D+02 DE=-1.01D-02 F= -1.21D-02
     ILin= 3 X=9.000D-01 Y=-3.427859989479D+02 DE=-1.24D-02 F=  6.18D-04
     Accept linear search using points  2 and  3.
     An  expanding polynomial of degree  3 produced  0.7329
 Iteration   3 EE= -342.785657366554     Delta-E=       -0.012034543225 Grad=8.994D-02 Max rot=    0.9040 deg.
 Gradient too large for Newton-Raphson -- use scaled steepest descent instead.
 Alpha Gap=     0.662 HL deriv= 6.17D-04
     ILin= 1 X=0.000D+00 Y=-3.427856573666D+02 DE= 0.00D+00 F= -3.46D-03
     ILin= 2 X=7.000D-01 Y=-3.427872360289D+02 DE=-1.58D-03 F= -1.05D-03
     Reject lnstep minimum 1.066D+00 FVal=-3.427876161580D+02 Lims=  0.00D+00  7.00D-01
     ILin= 3 X=1.400D+00 Y=-3.427871297142D+02 DE=-1.47D-03 F=  1.36D-03
     An  expanding polynomial of degree  3 produced  1.0058
 Iteration   4 EE= -342.787396832113     Delta-E=       -0.001739465559 Grad=2.197D-02 Max rot=    0.1248 deg.
 Gradient too large for Newton-Raphson -- use scaled steepest descent instead.
 Alpha Gap=     0.667 HL deriv= 2.01D-04
     ILin= 1 X=0.000D+00 Y=-3.427873968321D+02 DE= 0.00D+00 F= -5.84D-04
     ILin= 2 X=9.000D-01 Y=-3.427875741347D+02 DE=-1.77D-04 F=  1.90D-04
     Accept linear search using points  1 and  2.
     An  expanding polynomial of degree  2 produced  0.6518
 Iteration   5 EE= -342.787594833951     Delta-E=       -0.000198001838 Grad=6.883D-03 Max rot=    0.0403 deg.
 QCNR:  CnvC1=6.36D-09 CnvC2=6.36D-08
 LinEq1:  Iter=  0 NonCon=     1 RMS=7.94D-05 Max=7.61D-04 NDo=     1
 AX will form     1 AO Fock derivatives at one time.
 LinEq1:  Iter=  1 NonCon=     1 RMS=2.52D-05 Max=1.58D-04 NDo=     1
 LinEq1:  Iter=  2 NonCon=     1 RMS=5.46D-06 Max=5.83D-05 NDo=     1
 LinEq1:  Iter=  3 NonCon=     1 RMS=7.67D-07 Max=7.50D-06 NDo=     1
 LinEq1:  Iter=  4 NonCon=     1 RMS=2.54D-07 Max=1.81D-06 NDo=     1
 LinEq1:  Iter=  5 NonCon=     1 RMS=7.28D-08 Max=6.15D-07 NDo=     1
 LinEq1:  Iter=  6 NonCon=     1 RMS=1.76D-08 Max=1.56D-07 NDo=     1
 LinEq1:  Iter=  7 NonCon=     0 RMS=5.10D-09 Max=4.66D-08 NDo=     1
 Linear equations converged to 6.364D-09 6.364D-08 after     7 iterations.
 Angle between quadratic step and gradient=  33.65 degrees.
     ILin= 1 X=0.000D+00 Y=-3.427875948340D+02 DE= 0.00D+00 F= -8.27D-05
     ILin= 2 X=1.000D+00 Y=-3.427876361672D+02 DE=-4.13D-05 F=  2.46D-08
     Accept linear search using points  1 and  2.
     An  expanding polynomial of degree  2 produced  0.9997
     Minimum is close to point  2 DX= -2.97D-04 DF= -3.64D-12 DXR=  2.97D-04 DFR=  8.80D-08 which will be used.
 Iteration   6 EE= -342.787636167162     Delta-E=       -0.000041333211 Grad=4.827D-06 Max rot=    0.0000 deg.
 QCNR:  CnvC1=4.83D-11 CnvC2=4.83D-10
 LinEq1:  Iter=  0 NonCon=     1 RMS=6.58D-08 Max=6.62D-07 NDo=     1
 LinEq1:  Iter=  1 NonCon=     1 RMS=2.17D-08 Max=1.91D-07 NDo=     1
 LinEq1:  Iter=  2 NonCon=     1 RMS=3.91D-09 Max=3.57D-08 NDo=     1
 LinEq1:  Iter=  3 NonCon=     1 RMS=1.64D-09 Max=9.93D-09 NDo=     1
 LinEq1:  Iter=  4 NonCon=     1 RMS=3.24D-10 Max=2.59D-09 NDo=     1
 LinEq1:  Iter=  5 NonCon=     1 RMS=6.88D-11 Max=4.18D-10 NDo=     1
 LinEq1:  Iter=  6 NonCon=     0 RMS=1.96D-11 Max=1.19D-10 NDo=     1
 Linear equations converged to 4.827D-11 4.827D-10 after     6 iterations.
 Angle between quadratic step and gradient=  36.99 degrees.
     ILin= 1 X=0.000D+00 Y=-3.427876361672D+02 DE= 0.00D+00 F= -3.56D-11
     ILin= 2 X=1.000D+00 Y=-3.427876361672D+02 DE=-1.55D-11
 Iteration   7 EE= -342.787636167177     Delta-E=       -0.000000000015 Grad=2.690D-09 Max rot=    0.0000 deg.
 Rotation gradient small -- convergence achieved.
 SCF Done:  E(RHF) =  -342.787636167     a.u. after    7 cycles
            Convg  =    0.2690D-08                    28 Fock formations.
              S**2 =  0.0000                  -V/T =  2.0022
 Leave Link  508 at Wed Sep 20 14:29:37 2023, MaxMem=    33554432 cpu:         1.3
 (Enter /mnt/storage/apps/eb/software/gaussian/09/l601.exe)
 Copying SCF densities to generalized density rwf, IOpCl= 0 IROHF=0.

 **********************************************************************

            Population analysis using the SCF density.

 **********************************************************************

 Orbital symmetries:
       Occupied  (A) (A) (A) (A) (A) (A) (A) (A) (A) (A) (A) (A)
                 (A) (A) (A) (A) (A) (A) (A) (A) (A) (A) (A) (A)
                 (A)
       Virtual   (A) (A) (A) (A) (A) (A) (A) (A) (A) (A) (A) (A)
                 (A) (A) (A) (A) (A) (A) (A) (A) (A) (A) (A) (A)
                 (A) (A) (A) (A) (A) (A) (A) (A) (A) (A) (A) (A)
                 (A) (A) (A) (A) (A) (A) (A) (A) (A) (A) (A) (A)
                 (A) (A) (A) (A) (A) (A) (A) (A) (A) (A) (A) (A)
                 (A) (A) (A) (A) (A) (A) (A) (A) (A) (A) (A) (A)
                 (A) (A) (A) (A) (A) (A) (A) (A) (A)
 The electronic state is 1-A.
 Alpha  occ. eigenvalues --  -20.57891 -20.57073 -20.55389 -11.29049 -11.28478
 Alpha  occ. eigenvalues --  -11.27248  -1.38699  -1.37065  -1.34881  -1.02733
 Alpha  occ. eigenvalues --   -0.91771  -0.83877  -0.71488  -0.70149  -0.67512
 Alpha  occ. eigenvalues --   -0.64501  -0.62699  -0.60162  -0.56687  -0.55330
 Alpha  occ. eigenvalues --   -0.51941  -0.48683  -0.47215  -0.44576  -0.41105
 Alpha virt. eigenvalues --    0.19323   0.21019   0.22349   0.27853   0.28781
 Alpha virt. eigenvalues --    0.30376   0.31978   0.33495   0.39126   0.41414
 Alpha virt. eigenvalues --    0.44830   0.46253   0.49145   0.73951   0.79331
 Alpha virt. eigenvalues --    0.81437   0.82853   0.85550   0.89823   0.91678
 Alpha virt. eigenvalues --    0.95856   0.96818   1.02290   1.06193   1.07670
 Alpha virt. eigenvalues --    1.10129   1.13033   1.14317   1.14704   1.15705
 Alpha virt. eigenvalues --    1.18378   1.19808   1.25247   1.26659   1.30324
 Alpha virt. eigenvalues --    1.32988   1.37806   1.38759   1.45598   1.48341
 Alpha virt. eigenvalues --    1.60109   1.63910   1.70150   1.72974   1.79505
 Alpha virt. eigenvalues --    1.84122   1.90642   1.94082   1.97410   2.03187
 Alpha virt. eigenvalues --    2.05714   2.12202   2.14055   2.20272   2.25733
 Alpha virt. eigenvalues --    2.29043   2.40891   2.42677   2.44298   2.46973
 Alpha virt. eigenvalues --    2.48949   2.54960   2.59428   2.66616   2.69927
 Alpha virt. eigenvalues --    2.74475   2.79564   2.83845   2.89515   2.92838
 Alpha virt. eigenvalues --    3.01737   3.12579   3.23904   3.26805   3.29596
 Alpha virt. eigenvalues --    4.12143   4.23987   4.28632   4.65079   4.77731
 Alpha virt. eigenvalues --    4.95973
          Condensed to atoms (all electrons):
               1          2          3          4          5          6
     1  O    8.384691   0.212394  -0.038984   0.000791   0.003257   0.000019
     2  C    0.212394   4.814883   0.357823  -0.067195  -0.070756   0.004907
     3  C   -0.038984   0.357823   4.982718   0.178344   0.342995  -0.052813
     4  O    0.000791  -0.067195   0.178344   8.425944  -0.042307   0.002225
     5  C    0.003257  -0.070756   0.342995  -0.042307   4.858847   0.185166
     6  O    0.000019   0.004907  -0.052813   0.002225   0.185166   8.403279
     7  H    0.260362  -0.030904  -0.006424   0.001133   0.000304  -0.000005
     8  H   -0.048087   0.395257  -0.050703   0.004168   0.001663   0.003734
     9  H   -0.040429   0.391967  -0.032640  -0.002802  -0.005246   0.000264
    10  H   -0.001129  -0.049886   0.393794  -0.034391  -0.031919   0.001071
    11  H    0.000220  -0.004074  -0.034787   0.257023  -0.004711   0.000107
    12  H   -0.000019  -0.010637  -0.051108   0.000402   0.398845  -0.036580
    13  H   -0.000065   0.006379  -0.055815   0.005110   0.400803  -0.032355
    14  H   -0.000007  -0.000353  -0.003589  -0.000007  -0.024677   0.255585
               7          8          9         10         11         12
     1  O    0.260362  -0.048087  -0.040429  -0.001129   0.000220  -0.000019
     2  C   -0.030904   0.395257   0.391967  -0.049886  -0.004074  -0.010637
     3  C   -0.006424  -0.050703  -0.032640   0.393794  -0.034787  -0.051108
     4  O    0.001133   0.004168  -0.002802  -0.034391   0.257023   0.000402
     5  C    0.000304   0.001663  -0.005246  -0.031919  -0.004711   0.398845
     6  O   -0.000005   0.003734   0.000264   0.001071   0.000107  -0.036580
     7  H    0.329814  -0.000027   0.005503   0.004124   0.000031   0.000012
     8  H   -0.000027   0.576107  -0.033438  -0.000866   0.000065   0.000358
     9  H    0.005503  -0.033438   0.557402   0.004122   0.003509   0.004505
    10  H    0.004124  -0.000866   0.004122   0.544852   0.005895   0.004548
    11  H    0.000031   0.000065   0.003509   0.005895   0.339090   0.006870
    12  H    0.000012   0.000358   0.004505   0.004548   0.006870   0.561198
    13  H   -0.000009  -0.000091  -0.000175  -0.004752  -0.000696  -0.033377
    14  H   -0.000003   0.000143  -0.000001   0.002356   0.000026   0.005508
              13         14
     1  O   -0.000065  -0.000007
     2  C    0.006379  -0.000353
     3  C   -0.055815  -0.003589
     4  O    0.005110  -0.000007
     5  C    0.400803  -0.024677
     6  O   -0.032355   0.255585
     7  H   -0.000009  -0.000003
     8  H   -0.000091   0.000143
     9  H   -0.000175  -0.000001
    10  H   -0.004752   0.002356
    11  H   -0.000696   0.000026
    12  H   -0.033377   0.005508
    13  H    0.551418  -0.004947
    14  H   -0.004947   0.329941
 Mulliken charges:
               1
     1  O   -0.733016
     2  C    0.050194
     3  C    0.071188
     4  O   -0.728438
     5  C   -0.012266
     6  O   -0.734605
     7  H    0.436089
     8  H    0.151716
     9  H    0.147457
    10  H    0.162180
    11  H    0.431432
    12  H    0.149473
    13  H    0.168571
    14  H    0.440024
 Sum of Mulliken charges =   0.00000
 Mulliken charges with hydrogens summed into heavy atoms:
               1
     1  O   -0.296927
     2  C    0.349367
     3  C    0.233368
     4  O   -0.297006
     5  C    0.305778
     6  O   -0.294580
 Electronic spatial extent (au):  <R**2>=            661.3496
 Charge=              0.0000 electrons
 Dipole moment (field-independent basis, Debye):
    X=             -2.0897    Y=              0.2129    Z=             -1.4753  Tot=              2.5669
 Quadrupole moment (field-independent basis, Debye-Ang):
   XX=            -43.3164   YY=            -40.7068   ZZ=            -29.7055
   XY=             -1.9059   XZ=              1.2167   YZ=              5.3352
 Traceless Quadrupole moment (field-independent basis, Debye-Ang):
   XX=             -5.4068   YY=             -2.7973   ZZ=              8.2041
   XY=             -1.9059   XZ=              1.2167   YZ=              5.3352
 Octapole moment (field-independent basis, Debye-Ang**2):
  XXX=             -9.9896  YYY=             -2.4871  ZZZ=             -4.1711  XYY=             -3.2977
  XXY=              6.0794  XXZ=            -19.4866  XZZ=              1.4039  YZZ=              0.0623
  YYZ=              2.9213  XYZ=             -1.4279
 Hexadecapole moment (field-independent basis, Debye-Ang**3):
 XXXX=           -524.3530 YYYY=           -218.9295 ZZZZ=            -64.7108 XXXY=             11.1158
 XXXZ=              6.0696 YYYX=              1.7059 YYYZ=             15.6385 ZZZX=              0.8178
 ZZZY=              8.8604 XXYY=           -125.6372 XXZZ=            -70.5430 YYZZ=            -40.9944
 XXYZ=             15.5639 YYXZ=              6.6650 ZZXY=              4.3313
 N-N= 2.642655351490D+02 E-N=-1.336422704239D+03  KE= 3.420403925828D+02
 No NMR shielding tensors so no spin-rotation constants.
 Leave Link  601 at Wed Sep 20 14:29:37 2023, MaxMem=    33554432 cpu:         0.1
 (Enter /mnt/storage/apps/eb/software/gaussian/09/l701.exe)
 Compute integral first derivatives.
 ... and contract with generalized density number  0.
 Leave Link  701 at Wed Sep 20 14:29:37 2023, MaxMem=    33554432 cpu:         0.1
 (Enter /mnt/storage/apps/eb/software/gaussian/09/l702.exe)
 L702 exits ... SP integral derivatives will be done elsewhere.
 Leave Link  702 at Wed Sep 20 14:29:37 2023, MaxMem=    33554432 cpu:         0.0
 (Enter /mnt/storage/apps/eb/software/gaussian/09/l703.exe)
 Compute integral first derivatives, UseDBF=F ICtDFT=           0.
 Integral derivatives from FoFJK, PRISM(SPDF).
 Calling FoFJK, ICntrl=      2127 FMM=F ISym2X=0 I1Cent= 0 IOpClX= 0 NMat=1 NMatS=1 NMatT=0.
 FoFJK:  IHMeth= 1 ICntrl=    2127 DoSepK=F KAlg= 0 I1Cent=   0 FoldK=F
 IRaf=         0 NMat=   1 IRICut=       1 DoRegI=T DoRafI=F ISym2E= 0.
 FoFCou: FMM=F IPFlag=           0 FMFlag=      100000 FMFlg1=         800
         NFxFlg=           0 DoJE=F BraDBF=F KetDBF=F FulRan=T
         wScrn=  0.000000 ICntrl=    2127 IOpCl=  0 I1Cent=           0 NGrid=           0
         NMat0=    1 NMatS0=      1 NMatT0=    0 NMatD0=    1 NMtDS0=    0 NMtDT0=    0
 Symmetry not used in FoFCou.
 Leave Link  703 at Wed Sep 20 14:29:39 2023, MaxMem=    33554432 cpu:         1.4
 (Enter /mnt/storage/apps/eb/software/gaussian/09/l716.exe)
 Dipole        =-8.22169179D-01 8.37708110D-02-5.80438244D-01
 ***** Axes restored to original set *****
 -------------------------------------------------------------------
 Center     Atomic                   Forces (Hartrees/Bohr)
 Number     Number              X              Y              Z
 -------------------------------------------------------------------
      1        8           0.019110437   -0.003608060   -0.036521252
      2        6          -0.002610572   -0.033851495    0.011023104
      3        6           0.018444434    0.020872760    0.012359126
      4        8          -0.019234843    0.027076479    0.027960406
      5        6          -0.019202589    0.008984324    0.002071192
      6        8          -0.015756635   -0.042246390   -0.023512145
      7        1          -0.001357374    0.012611697    0.033399128
      8        1          -0.007381777    0.016762547   -0.000426641
      9        1           0.000224960   -0.009604154   -0.010540963
     10        1          -0.003635907    0.006031387    0.004928750
     11        1           0.017415829   -0.022018522   -0.044525026
     12        1          -0.005927657   -0.013612308   -0.016645276
     13        1           0.008158203   -0.002754962    0.007477587
     14        1           0.011753493    0.035356697    0.032952010
 -------------------------------------------------------------------
 Cartesian Forces:  Max     0.044525026 RMS     0.019881180
 Leave Link  716 at Wed Sep 20 14:29:39 2023, MaxMem=    33554432 cpu:         0.0
 (Enter /mnt/storage/apps/eb/software/gaussian/09/l103.exe)

 GradGradGradGradGradGradGradGradGradGradGradGradGradGradGradGradGradGrad
 Berny optimization.
 FormGI is forming the generalized inverse of G from B-inverse, IUseBI=4.
 Internal  Forces:  Max     0.051748601 RMS     0.012818678
 Search for a local minimum.
 Step number   1 out of a maximum of  100
 All quantities printed in internal units (Hartrees-Bohrs-Radians)
 RMS Force = .12819D-01 SwitMx=.10000D-02 MixMth= 1
 Mixed Optimization -- RFO/linear search
 Second derivative matrix not updated -- first step.
 ITU=  0
     Eigenvalues ---    0.00476   0.00768   0.01558   0.01896   0.01941
     Eigenvalues ---    0.04251   0.04988   0.05037   0.05743   0.05770
     Eigenvalues ---    0.06289   0.07615   0.11816   0.11893   0.13997
     Eigenvalues ---    0.14110   0.15921   0.16000   0.16000   0.16000
     Eigenvalues ---    0.18946   0.22075   0.22105   0.30183   0.31670
     Eigenvalues ---    0.32391   0.32413   0.33201   0.33270   0.34111
     Eigenvalues ---    0.43988   0.47182   0.48065   0.48282   0.48893
     Eigenvalues ---    0.51203
 RFO step:  Lambda=-3.20132932D-02 EMin= 4.76032668D-03
 Linear search not attempted -- first point.
 Iteration  1 RMS(Cart)=  0.08240756 RMS(Int)=  0.00485181
 Iteration  2 RMS(Cart)=  0.00547876 RMS(Int)=  0.00147625
 Iteration  3 RMS(Cart)=  0.00003845 RMS(Int)=  0.00147591
 Iteration  4 RMS(Cart)=  0.00000001 RMS(Int)=  0.00147591
 ITry= 1 IFail=0 DXMaxC= 3.21D-01 DCOld= 1.00D+10 DXMaxT= 3.00D-01 DXLimC= 3.00D+00 Rises=F
 Variable       Old X    -DE/DX   Delta X   Delta X   Delta X     New X
                                 (Linear)    (Quad)   (Total)
    R1        2.60999   0.01814   0.00000   0.03482   0.03482   2.64481
    R2        1.85370  -0.03572   0.00000  -0.06566  -0.06566   1.78805
    R3        2.87601   0.00723   0.00000   0.02165   0.02165   2.89765
    R4        2.10095  -0.01494   0.00000  -0.04195  -0.04195   2.05900
    R5        2.08700  -0.01424   0.00000  -0.03913  -0.03913   2.04787
    R6        2.66468   0.00938   0.00000   0.01988   0.01988   2.68456
    R7        2.83435   0.01984   0.00000   0.05575   0.05575   2.89010
    R8        2.07143  -0.00784   0.00000  -0.02102  -0.02102   2.05041
    R9        1.89520  -0.05175   0.00000  -0.10271  -0.10271   1.79250
   R10        2.61640   0.01055   0.00000   0.02049   0.02049   2.63689
   R11        2.11452  -0.02180   0.00000  -0.06251  -0.06251   2.05202
   R12        2.08580  -0.01127   0.00000  -0.03089  -0.03089   2.05491
   R13        1.88570  -0.04946   0.00000  -0.09647  -0.09647   1.78923
    A1        1.93191  -0.00122   0.00000  -0.00636  -0.00636   1.92555
    A2        1.95624   0.00551   0.00000   0.02927   0.02881   1.98504
    A3        1.86822   0.00642   0.00000   0.06823   0.06791   1.93612
    A4        1.87560  -0.00370   0.00000  -0.02565  -0.02515   1.85045
    A5        1.94307  -0.00520   0.00000  -0.02082  -0.02255   1.92053
    A6        1.91807  -0.00211   0.00000  -0.02629  -0.02662   1.89145
    A7        1.90026  -0.00084   0.00000  -0.02432  -0.02500   1.87527
    A8        1.84327   0.00993   0.00000   0.09616   0.09177   1.93505
    A9        1.93203   0.00162   0.00000   0.03232   0.02632   1.95836
   A10        1.93337  -0.00241   0.00000  -0.03512  -0.03386   1.89951
   A11        1.85858   0.00501   0.00000   0.06406   0.05830   1.91688
   A12        1.89543  -0.00727   0.00000  -0.07030  -0.06778   1.82766
   A13        1.99307  -0.00554   0.00000  -0.07193  -0.07117   1.92190
   A14        1.82455   0.01756   0.00000   0.09143   0.09143   1.91597
   A15        1.98142   0.00378   0.00000   0.01717   0.01709   1.99850
   A16        1.86571   0.00416   0.00000   0.02725   0.02727   1.89297
   A17        1.91935  -0.00244   0.00000  -0.01107  -0.01101   1.90833
   A18        1.85792  -0.00401   0.00000  -0.02058  -0.02087   1.83704
   A19        1.94879   0.00000   0.00000   0.00239   0.00238   1.95117
   A20        1.88529  -0.00158   0.00000  -0.01593  -0.01590   1.86940
   A21        1.96231  -0.00995   0.00000  -0.05184  -0.05184   1.91047
    D1       -0.67265  -0.00098   0.00000  -0.02321  -0.02433  -0.69699
    D2        1.46256   0.00029   0.00000   0.01503   0.01645   1.47901
    D3       -2.78174   0.00071   0.00000   0.00849   0.00818  -2.77356
    D4       -1.04707   0.00927   0.00000   0.11068   0.11191  -0.93516
    D5       -3.05198  -0.00281   0.00000  -0.03259  -0.03365  -3.08563
    D6        1.00195   0.00510   0.00000   0.06439   0.06416   1.06611
    D7       -3.13910   0.00091   0.00000   0.01794   0.01959  -3.11951
    D8        1.13918  -0.01117   0.00000  -0.12533  -0.12597   1.01321
    D9       -1.09007  -0.00326   0.00000  -0.02834  -0.02816  -1.11823
   D10        1.03728   0.00676   0.00000   0.07969   0.08057   1.11784
   D11       -0.96763  -0.00532   0.00000  -0.06358  -0.06499  -1.03262
   D12        3.08631   0.00259   0.00000   0.03340   0.03281   3.11912
   D13       -1.23146  -0.00178   0.00000  -0.01237  -0.01559  -1.24705
   D14        0.82344   0.00722   0.00000   0.10110   0.10370   0.92714
   D15        2.97730  -0.00063   0.00000   0.01241   0.01302   2.99032
   D16       -1.14617   0.00764   0.00000   0.08528   0.08546  -1.06071
   D17        0.89706   0.00753   0.00000   0.08725   0.08766   0.98472
   D18        2.93952   0.00671   0.00000   0.07785   0.07811   3.01763
   D19       -3.14146  -0.00761   0.00000  -0.07917  -0.07990   3.06183
   D20       -1.09822  -0.00772   0.00000  -0.07720  -0.07770  -1.17593
   D21        0.94423  -0.00854   0.00000  -0.08660  -0.08725   0.85699
   D22        1.05002   0.00134   0.00000   0.00768   0.00792   1.05794
   D23        3.09325   0.00123   0.00000   0.00965   0.01012   3.10337
   D24       -1.14747   0.00041   0.00000   0.00025   0.00057  -1.14690
   D25       -1.24984   0.00130   0.00000   0.00288   0.00274  -1.24710
   D26        2.98557  -0.00333   0.00000  -0.02684  -0.02665   2.95891
   D27        0.93193   0.00099   0.00000   0.00347   0.00343   0.93536
         Item               Value     Threshold  Converged?
 Maximum Force            0.051749     0.000015     NO 
 RMS     Force            0.012819     0.000010     NO 
 Maximum Displacement     0.321012     0.000060     NO 
 RMS     Displacement     0.079896     0.000040     NO 
 Predicted change in Energy=-1.919062D-02
 Lowest energy point so far.  Saving SCF results.
 GradGradGradGradGradGradGradGradGradGradGradGradGradGradGradGradGradGrad

 Leave Link  103 at Wed Sep 20 14:29:39 2023, MaxMem=    33554432 cpu:         0.0
 (Enter /mnt/storage/apps/eb/software/gaussian/09/l202.exe)
                          Input orientation:                          
 ---------------------------------------------------------------------
 Center     Atomic      Atomic             Coordinates (Angstroms)
 Number     Number       Type             X           Y           Z
 ---------------------------------------------------------------------
      1          8           0        2.420128   -0.148345    0.011545
      2          6           0        1.123873   -0.253171    0.528782
      3          6           0        0.028484    0.154513   -0.463762
      4          8           0        0.274827    1.453272   -0.984028
      5          6           0       -1.366410    0.101957    0.161138
      6          8           0       -1.750169   -1.160566    0.614848
      7          1           0        2.439703   -0.440982   -0.888045
      8          1           0        0.933886   -1.259019    0.902069
      9          1           0        1.084683    0.420760    1.376520
     10          1           0        0.075806   -0.501623   -1.326629
     11          1           0        0.118592    2.103464   -0.311285
     12          1           0       -1.372461    0.736288    1.042457
     13          1           0       -2.089557    0.517152   -0.536813
     14          1           0       -1.921384   -1.723701   -0.126795
 ---------------------------------------------------------------------
                    Distance matrix (angstroms):
                    1          2          3          4          5
     1  O    0.000000
     2  C    1.399571   0.000000
     3  C    2.457153   1.533371   0.000000
     4  O    2.856336   2.433396   1.420610   0.000000
     5  C    3.797750   2.542202   1.529377   2.414770   0.000000
     6  O    4.333584   3.015111   2.460984   3.672760   1.395381
     7  H    0.946193   1.942699   2.519644   2.878210   3.985231
     8  H    2.058045   1.089573   2.164098   3.368715   2.773553
     9  H    1.992599   1.083688   2.138477   2.700765   2.754387
    10  H    2.722382   2.145396   1.085032   1.994642   2.158182
    11  H    3.236037   2.696300   1.956982   0.948548   2.536621
    12  H    4.028535   2.733967   2.137710   2.708185   1.085880
    13  H    4.591388   3.472035   2.150103   2.581983   1.087412
    14  H    4.620564   3.444682   2.728227   3.956178   1.929748
                    6          7          8          9         10
     6  O    0.000000
     7  H    4.509049   0.000000
     8  H    2.701174   2.478140   0.000000
     9  H    3.334235   2.776137   1.751999   0.000000
    10  H    2.745492   2.405004   2.505404   3.029132   0.000000
    11  H    3.873485   3.492050   3.666501   2.571675   2.796289
    12  H    1.980800   4.432313   3.052900   2.499743   3.040143
    13  H    2.063067   4.642799   3.790300   3.707551   2.520022
    14  H    0.946821   4.609116   3.070351   3.986867   2.630940
                   11         12         13         14
    11  H    0.000000
    12  H    2.434138   0.000000
    13  H    2.728218   1.748239   0.000000
    14  H    4.340821   2.778491   2.284255   0.000000
 Stoichiometry    C3H8O3
 Framework group  C1[X(C3H8O3)]
 Deg. of freedom    36
 Full point group                 C1      NOp   1
 RotChk:  IX=0 Diff= 1.85D-02
 Largest Abelian subgroup         C1      NOp   1
 Largest concise Abelian subgroup C1      NOp   1
                         Standard orientation:                         
 ---------------------------------------------------------------------
 Center     Atomic      Atomic             Coordinates (Angstroms)
 Number     Number       Type             X           Y           Z
 ---------------------------------------------------------------------
      1          8           0        2.197465   -0.728595   -0.055105
      2          6           0        0.852807   -0.756942    0.332053
      3          6           0        0.004314    0.351412   -0.302641
      4          8           0        0.583159    1.627766   -0.070278
      5          6           0       -1.438744    0.336264    0.203665
      6          8           0       -2.134603   -0.842643   -0.066612
      7          1           0        2.270201   -0.521337   -0.975450
      8          1           0        0.409084   -1.730671    0.126792
      9          1           0        0.847970   -0.617759    1.406754
     10          1           0        0.022717    0.232582   -1.380989
     11          1           0        0.482333    1.864512    0.842700
     12          1           0       -1.424106    0.417566    1.286398
     13          1           0       -1.962677    1.210352   -0.175715
     14          1           0       -2.323963   -0.891872   -0.992997
 ---------------------------------------------------------------------
 Rotational constants (GHZ):      5.4339157      2.3161136      1.7519377
 Leave Link  202 at Wed Sep 20 14:29:39 2023, MaxMem=    33554432 cpu:         0.0
 (Enter /mnt/storage/apps/eb/software/gaussian/09/l301.exe)
 Standard basis: 6-31G(d) (6D, 7F)
 Ernie: Thresh=  0.10000D-02 Tol=  0.10000D-05 Strict=F.
 There are   106 symmetry adapted cartesian basis functions of A   symmetry.
 There are   106 symmetry adapted basis functions of A   symmetry.
   106 basis functions,   200 primitive gaussians,   106 cartesian basis functions
    25 alpha electrons       25 beta electrons
       nuclear repulsion energy       261.3529136799 Hartrees.
 IExCor=    0 DFT=F Ex=HF Corr=None ExCW=0 ScaHFX=  1.000000
 ScaDFX=  1.000000  1.000000  1.000000  1.000000 ScalE2=  1.000000  1.000000
 IRadAn=      0 IRanWt=     -1 IRanGd=            0 ICorTp=0 IEmpDi=  4
 NAtoms=   14 NActive=   14 NUniq=   14 SFac= 1.00D+00 NAtFMM=   60 NAOKFM=F Big=F
 Integral buffers will be    131072 words long.
 Raffenetti 1 integral format.
 Two-electron integral symmetry is turned on.
 Leave Link  301 at Wed Sep 20 14:29:39 2023, MaxMem=    33554432 cpu:         0.0
 (Enter /mnt/storage/apps/eb/software/gaussian/09/l302.exe)
 NPDir=0 NMtPBC=     1 NCelOv=     1 NCel=       1 NClECP=     1 NCelD=      1
         NCelK=      1 NCelE2=     1 NClLst=     1 CellRange=     0.0.
 One-electron integrals computed using PRISM.
 NBasis=   106 RedAO= T EigKep=  3.24D-03  NBF=   106
 NBsUse=   106 1.00D-06 EigRej= -1.00D+00 NBFU=   106
 Leave Link  302 at Wed Sep 20 14:29:39 2023, MaxMem=    33554432 cpu:         0.1
 (Enter /mnt/storage/apps/eb/software/gaussian/09/l303.exe)
 DipDrv:  MaxL=1.
 Leave Link  303 at Wed Sep 20 14:29:39 2023, MaxMem=    33554432 cpu:         0.0
 (Enter /mnt/storage/apps/eb/software/gaussian/09/l401.exe)
 Initial guess from the checkpoint file:  "/scratch/nca121/18446470/Gau-721.chk"
 B after Tr=     0.000000    0.000000    0.000000
         Rot=    0.999977   -0.006556    0.001174    0.000823 Ang=  -0.77 deg.
 Guess basis will be translated and rotated to current coordinates.
 JPrj=2 DoOrth=T DoCkMO=T.
 Generating alternative initial guess.
 ExpMin= 1.61D-01 ExpMax= 5.48D+03 ExpMxC= 8.25D+02 IAcc=1 IRadAn=         1 AccDes= 0.00D+00
 Harris functional with IExCor=  205 and IRadAn=       1 diagonalized for initial guess.
 HarFok:  IExCor=  205 AccDes= 0.00D+00 IRadAn=         1 IDoV= 1 UseB2=F ITyADJ=14
 ICtDFT=  3500011 ScaDFX=  1.000000  1.000000  1.000000  1.000000
 FoFCou: FMM=F IPFlag=           0 FMFlag=      100000 FMFlg1=           0
         NFxFlg=           0 DoJE=T BraDBF=F KetDBF=T FulRan=T
         wScrn=  0.000000 ICntrl=     500 IOpCl=  0 I1Cent=   200000004 NGrid=           0
         NMat0=    1 NMatS0=      1 NMatT0=    0 NMatD0=    1 NMtDS0=    0 NMtDT0=    0
 Petite list used in FoFCou.
 Harris En= -343.194812923265    
 Leave Link  401 at Wed Sep 20 14:29:39 2023, MaxMem=    33554432 cpu:         0.3
 (Enter /mnt/storage/apps/eb/software/gaussian/09/l508.exe)
 Direct SCF.
 Tight linear equation convergence will be used.
 RHF wavefunction.
 Quadratic Convergence SCF Method.
 Line search only if initial step raises energy.
 Integral symmetry usage will be decided dynamically.
 ReadGW:  IGet=1 IStart=         402 Next=         402 LGW=           0.
 Keep R1 ints in memory in canonical form, NReq=17056508.
 FoFCou: FMM=F IPFlag=           0 FMFlag=           0 FMFlg1=           0
         NFxFlg=           0 DoJE=F BraDBF=F KetDBF=F FulRan=T
         wScrn=  0.000000 ICntrl=     600 IOpCl=  0 I1Cent=           0 NGrid=           0
         NMat0=    1 NMatS0=   5671 NMatT0=    0 NMatD0=    1 NMtDS0=    0 NMtDT0=    0
 Symmetry not used in FoFCou.
 Iteration   1 EE= -342.791933694214                                    Grad=1.302D-01 Max rot=    0.5335 deg.
 Gradient too large for Newton-Raphson -- use scaled steepest descent instead.
 Alpha Gap=     1.908 HL deriv= 9.90D-04
     ILin= 1 X=0.000D+00 Y=-3.427919336942D+02 DE= 0.00D+00 F= -1.41D-02
     ILin= 2 X=3.000D-01 Y=-3.427956592087D+02 DE=-3.73D-03 F= -1.07D-02
     ILin= 3 X=6.000D-01 Y=-3.427983605349D+02 DE=-6.43D-03 F= -7.30D-03
     ILin= 4 X=1.200D+00 Y=-3.428006920188D+02 DE=-8.76D-03 F= -4.75D-04
     Reject lnstep minimum 1.522D+00 FVal=-3.428008925130D+02 Lims=  6.00D-01  1.20D+00
     ILin= 5 X=2.400D+00 Y=-3.427930849202D+02 DE=-1.15D-03 F=  1.31D-02
     An  expanding polynomial of degree  5 produced  1.2418
     Minimum is close to point  4 DX=  4.18D-02 DF= -9.92D-06 DXR=  3.36D-02 DFR=  1.13D-03 which will be used.
 Iteration   2 EE= -342.800692018786     Delta-E=       -0.008758324572 Grad=6.453D-02 Max rot=    0.2978 deg.
 Gradient too large for Newton-Raphson -- use scaled steepest descent instead.
 Alpha Gap=     1.908 HL deriv= 6.16D-05
     ILin= 1 X=0.000D+00 Y=-3.428006920188D+02 DE= 0.00D+00 F= -3.42D-03
     ILin= 2 X=6.000D-01 Y=-3.428021172779D+02 DE=-1.43D-03 F= -1.33D-03
     ILin= 3 X=1.200D+00 Y=-3.428022839999D+02 DE=-1.59D-03 F=  7.71D-04
     Accept linear search using points  2 and  3.
     An  expanding polynomial of degree  3 produced  0.9326
 Iteration   3 EE= -342.802365203511     Delta-E=       -0.001673184725 Grad=3.656D-02 Max rot=    0.1781 deg.
 Gradient too large for Newton-Raphson -- use scaled steepest descent instead.
 Alpha Gap=     1.908 HL deriv= 3.23D-04
     ILin= 1 X=0.000D+00 Y=-3.428023652035D+02 DE= 0.00D+00 F= -1.17D-03
     ILin= 2 X=1.100D+00 Y=-3.428029444641D+02 DE=-5.79D-04 F=  1.18D-04
     Accept linear search using points  1 and  2.
     An  expanding polynomial of degree  2 produced  1.0186
     Minimum is close to point  2 DX= -8.14D-02 DF= -4.33D-06 DXR=  7.99D-02 DFR=  7.48D-03 which will be used.
 Iteration   4 EE= -342.802944464138     Delta-E=       -0.000579260626 Grad=3.206D-02 Max rot=    0.1681 deg.
 Gradient too large for Newton-Raphson -- use scaled steepest descent instead.
 Alpha Gap=     1.908 HL deriv= 9.81D-05
     ILin= 1 X=0.000D+00 Y=-3.428029444641D+02 DE= 0.00D+00 F= -8.52D-04
     ILin= 2 X=1.000D+00 Y=-3.428031885376D+02 DE=-2.44D-04 F=  3.64D-04
     Accept linear search using points  1 and  2.
     An  expanding polynomial of degree  2 produced  0.7008
 Iteration   5 EE= -342.803242951514     Delta-E=       -0.000298487377 Grad=1.690D-02 Max rot=    0.1027 deg.
 Gradient too large for Newton-Raphson -- use scaled steepest descent instead.
 Alpha Gap=     1.908 HL deriv= 1.71D-04
     ILin= 1 X=0.000D+00 Y=-3.428032429515D+02 DE= 0.00D+00 F= -2.55D-04
     ILin= 2 X=8.000D-01 Y=-3.428033754850D+02 DE=-1.33D-04 F= -7.60D-05
     Reject lnstep minimum 1.807D+00 FVal=-3.428034508182D+02 Lims=  0.00D+00  8.00D-01
     ILin= 3 X=1.700D+00 Y=-3.428033530471D+02 DE=-1.10D-04 F=  1.26D-04
     An  expanding polynomial of degree  3 produced  1.1388
 Iteration   6 EE= -342.803388355186     Delta-E=       -0.000145403672 Grad=1.652D-02 Max rot=    0.1059 deg.
 Gradient too large for Newton-Raphson -- use scaled steepest descent instead.
 Alpha Gap=     1.908 HL deriv= 8.08D-05
     ILin= 1 X=0.000D+00 Y=-3.428033883552D+02 DE= 0.00D+00 F= -2.30D-04
     ILin= 2 X=9.000D-01 Y=-3.428034600841D+02 DE=-7.17D-05 F=  7.05D-05
     Accept linear search using points  1 and  2.
     An  expanding polynomial of degree  2 produced  0.6612
 Iteration   7 EE= -342.803467407883     Delta-E=       -0.000079052697 Grad=9.075D-03 Max rot=    0.0602 deg.
 QCNR:  CnvC1=6.36D-09 CnvC2=6.36D-08
 LinEq1:  Iter=  0 NonCon=     1 RMS=1.40D-04 Max=1.96D-03 NDo=     1
 AX will form     1 AO Fock derivatives at one time.
 LinEq1:  Iter=  1 NonCon=     1 RMS=1.63D-05 Max=1.07D-04 NDo=     1
 LinEq1:  Iter=  2 NonCon=     1 RMS=6.28D-06 Max=3.67D-05 NDo=     1
 LinEq1:  Iter=  3 NonCon=     1 RMS=1.71D-06 Max=1.30D-05 NDo=     1
 LinEq1:  Iter=  4 NonCon=     1 RMS=6.71D-07 Max=4.98D-06 NDo=     1
 LinEq1:  Iter=  5 NonCon=     1 RMS=1.45D-07 Max=1.31D-06 NDo=     1
 LinEq1:  Iter=  6 NonCon=     1 RMS=3.19D-08 Max=2.66D-07 NDo=     1
 LinEq1:  Iter=  7 NonCon=     1 RMS=9.96D-09 Max=8.57D-08 NDo=     1
 LinEq1:  Iter=  8 NonCon=     0 RMS=3.37D-09 Max=2.32D-08 NDo=     1
 Linear equations converged to 6.364D-09 6.364D-08 after     8 iterations.
 Angle between quadratic step and gradient=  30.63 degrees.
     ILin= 1 X=0.000D+00 Y=-3.428034674079D+02 DE= 0.00D+00 F= -2.22D-04
     ILin= 2 X=1.000D+00 Y=-3.428035785309D+02 DE=-1.11D-04 F= -1.41D-07
     Reject lnstep minimum 1.001D+00 FVal=-3.428035785310D+02 Lims=  0.00D+00  1.00D+00
     ILin= 3 X=2.000D+00 Y=-3.428034677846D+02 DE=-3.77D-07 F=  2.22D-04
     An  expanding polynomial of degree  3 produced  1.0008
     Minimum is close to point  2 DX=  8.49D-04 DF= -8.00D-11 DXR=  8.48D-04 DFR=  7.20D-07 which will be used.
 Iteration   8 EE= -342.803578530905     Delta-E=       -0.000111123022 Grad=2.789D-05 Max rot=    0.0002 deg.
 QCNR:  CnvC1=2.79D-10 CnvC2=2.79D-09
 LinEq1:  Iter=  0 NonCon=     1 RMS=3.09D-07 Max=3.29D-06 NDo=     1
 LinEq1:  Iter=  1 NonCon=     1 RMS=1.05D-07 Max=1.05D-06 NDo=     1
 LinEq1:  Iter=  2 NonCon=     1 RMS=2.80D-08 Max=2.36D-07 NDo=     1
 LinEq1:  Iter=  3 NonCon=     1 RMS=8.18D-09 Max=5.09D-08 NDo=     1
 LinEq1:  Iter=  4 NonCon=     1 RMS=1.71D-09 Max=9.76D-09 NDo=     1
 LinEq1:  Iter=  5 NonCon=     1 RMS=4.65D-10 Max=2.74D-09 NDo=     1
 LinEq1:  Iter=  6 NonCon=     0 RMS=1.67D-10 Max=1.13D-09 NDo=     1
 Linear equations converged to 2.789D-10 2.789D-09 after     6 iterations.
 Angle between quadratic step and gradient=  39.38 degrees.
     ILin= 1 X=0.000D+00 Y=-3.428035785309D+02 DE= 0.00D+00 F= -7.89D-10
     ILin= 2 X=1.000D+00 Y=-3.428035785313D+02 DE=-3.97D-10
 Iteration   9 EE= -342.803578531302     Delta-E=       -0.000000000397 Grad=1.922D-08 Max rot=    0.0000 deg.
 Rotation gradient small -- convergence achieved.
 SCF Done:  E(RHF) =  -342.803578531     a.u. after    9 cycles
            Convg  =    0.1922D-07                    33 Fock formations.
              S**2 =  0.0000                  -V/T =  2.0017
 Leave Link  508 at Wed Sep 20 14:29:41 2023, MaxMem=    33554432 cpu:         1.5
 (Enter /mnt/storage/apps/eb/software/gaussian/09/l701.exe)
 Compute integral first derivatives.
 ... and contract with generalized density number  0.
 Leave Link  701 at Wed Sep 20 14:29:41 2023, MaxMem=    33554432 cpu:         0.1
 (Enter /mnt/storage/apps/eb/software/gaussian/09/l702.exe)
 L702 exits ... SP integral derivatives will be done elsewhere.
 Leave Link  702 at Wed Sep 20 14:29:41 2023, MaxMem=    33554432 cpu:         0.0
 (Enter /mnt/storage/apps/eb/software/gaussian/09/l703.exe)
 Compute integral first derivatives, UseDBF=F ICtDFT=           0.
 Integral derivatives from FoFJK, PRISM(SPDF).
 Calling FoFJK, ICntrl=      2127 FMM=F ISym2X=0 I1Cent= 0 IOpClX= 0 NMat=1 NMatS=1 NMatT=0.
 FoFJK:  IHMeth= 1 ICntrl=    2127 DoSepK=F KAlg= 0 I1Cent=   0 FoldK=F
 IRaf=         0 NMat=   1 IRICut=       1 DoRegI=T DoRafI=F ISym2E= 0.
 FoFCou: FMM=F IPFlag=           0 FMFlag=      100000 FMFlg1=         800
         NFxFlg=           0 DoJE=F BraDBF=F KetDBF=F FulRan=T
         wScrn=  0.000000 ICntrl=    2127 IOpCl=  0 I1Cent=           0 NGrid=           0
         NMat0=    1 NMatS0=      1 NMatT0=    0 NMatD0=    1 NMtDS0=    0 NMtDT0=    0
 Symmetry not used in FoFCou.
 Leave Link  703 at Wed Sep 20 14:29:42 2023, MaxMem=    33554432 cpu:         1.4
 (Enter /mnt/storage/apps/eb/software/gaussian/09/l716.exe)
 Dipole        =-7.35765326D-01 2.08765940D-01-4.70052041D-01
 ***** Axes restored to original set *****
 -------------------------------------------------------------------
 Center     Atomic                   Forces (Hartrees/Bohr)
 Number     Number              X              Y              Z
 -------------------------------------------------------------------
      1        8          -0.001791743    0.000834224   -0.000073768
      2        6          -0.003325679   -0.000479580   -0.000196006
      3        6           0.008656569    0.009363969    0.000910073
      4        8          -0.006429119   -0.011366539    0.002083163
      5        6          -0.000060148    0.006407246    0.002951510
      6        8           0.002053075   -0.003596198   -0.002156465
      7        1          -0.000109556   -0.000446292   -0.000712914
      8        1          -0.000853075    0.002190117   -0.001953274
      9        1           0.000448462   -0.000243439    0.001667923
     10        1          -0.001520773   -0.000903952   -0.001242627
     11        1           0.002711165   -0.000424166    0.000814450
     12        1          -0.000419442    0.001042319   -0.000995982
     13        1           0.001338043   -0.001203600   -0.001040113
     14        1          -0.000697780   -0.001174108   -0.000055972
 -------------------------------------------------------------------
 Cartesian Forces:  Max     0.011366539 RMS     0.003307778
 Leave Link  716 at Wed Sep 20 14:29:42 2023, MaxMem=    33554432 cpu:         0.0
 (Enter /mnt/storage/apps/eb/software/gaussian/09/l103.exe)

 GradGradGradGradGradGradGradGradGradGradGradGradGradGradGradGradGradGrad
 Berny optimization.
 Using GEDIIS/GDIIS optimizer.
 FormGI is forming the generalized inverse of G from B-inverse, IUseBI=4.
 Internal  Forces:  Max     0.012485264 RMS     0.002283679
 Search for a local minimum.
 Step number   2 out of a maximum of  100
 All quantities printed in internal units (Hartrees-Bohrs-Radians)
 RMS Force = .22837D-02 SwitMx=.10000D-02 MixMth= 1
 Mixed Optimization -- RFO/linear search
 Update second derivatives using D2CorX and points    1    2
 DE= -1.59D-02 DEPred=-1.92D-02 R= 8.31D-01
 TightC=F SS=  1.41D+00  RLast= 4.28D-01 DXNew= 5.0454D-01 1.2843D+00
 Trust test= 8.31D-01 RLast= 4.28D-01 DXMaxT set to 5.05D-01
 ITU=  1  0
 Use linear search instead of GDIIS.
     Eigenvalues ---    0.00476   0.00768   0.01552   0.01896   0.01941
     Eigenvalues ---    0.04553   0.04837   0.04852   0.05678   0.06112
     Eigenvalues ---    0.06245   0.07611   0.11907   0.12041   0.13993
     Eigenvalues ---    0.14184   0.15975   0.16000   0.16312   0.17012
     Eigenvalues ---    0.19949   0.22052   0.22356   0.30188   0.31594
     Eigenvalues ---    0.32184   0.32686   0.33226   0.33345   0.34212
     Eigenvalues ---    0.42857   0.47411   0.47936   0.48666   0.49606
     Eigenvalues ---    0.51562
 RFO step:  Lambda=-1.79655158D-03 EMin= 4.76130679D-03
 Quartic linear search produced a step of  0.00096.
 Iteration  1 RMS(Cart)=  0.03134114 RMS(Int)=  0.00112185
 Iteration  2 RMS(Cart)=  0.00103982 RMS(Int)=  0.00014188
 Iteration  3 RMS(Cart)=  0.00000199 RMS(Int)=  0.00014188
 Iteration  4 RMS(Cart)=  0.00000000 RMS(Int)=  0.00014188
 ITry= 1 IFail=0 DXMaxC= 1.47D-01 DCOld= 1.00D+10 DXMaxT= 5.05D-01 DXLimC= 3.00D+00 Rises=F
 Variable       Old X    -DE/DX   Delta X   Delta X   Delta X     New X
                                 (Linear)    (Quad)   (Total)
    R1        2.64481  -0.00144   0.00003  -0.00177  -0.00173   2.64307
    R2        1.78805   0.00081  -0.00006  -0.00062  -0.00069   1.78736
    R3        2.89765  -0.00534   0.00002  -0.01685  -0.01683   2.88082
    R4        2.05900  -0.00254  -0.00004  -0.00921  -0.00925   2.04975
    R5        2.04787   0.00114  -0.00004   0.00209   0.00206   2.04993
    R6        2.68456  -0.01249   0.00002  -0.02760  -0.02758   2.65698
    R7        2.89010  -0.00260   0.00005  -0.00611  -0.00606   2.88404
    R8        2.05041   0.00147  -0.00002   0.00358   0.00356   2.05397
    R9        1.79250  -0.00016  -0.00010  -0.00379  -0.00389   1.78861
   R10        2.63689   0.00322   0.00002   0.00734   0.00736   2.64425
   R11        2.05202  -0.00020  -0.00006  -0.00272  -0.00278   2.04924
   R12        2.05491  -0.00068  -0.00003  -0.00307  -0.00310   2.05181
   R13        1.78923   0.00087  -0.00009  -0.00144  -0.00153   1.78770
    A1        1.92555  -0.00029  -0.00001  -0.00203  -0.00203   1.92352
    A2        1.98504  -0.00261   0.00003  -0.01157  -0.01162   1.97342
    A3        1.93612   0.00188   0.00007   0.00702   0.00688   1.94300
    A4        1.85045   0.00038  -0.00002   0.00573   0.00573   1.85618
    A5        1.92053  -0.00142  -0.00002  -0.01688  -0.01694   1.90359
    A6        1.89145   0.00222  -0.00003   0.01712   0.01716   1.90861
    A7        1.87527  -0.00023  -0.00002   0.00061   0.00065   1.87591
    A8        1.93505   0.00150   0.00009   0.01939   0.01939   1.95444
    A9        1.95836  -0.00080   0.00003  -0.00038  -0.00049   1.95787
   A10        1.89951   0.00093  -0.00003   0.00596   0.00586   1.90537
   A11        1.91688   0.00003   0.00006   0.00524   0.00516   1.92204
   A12        1.82766  -0.00051  -0.00007  -0.00687  -0.00702   1.82064
   A13        1.92190  -0.00114  -0.00007  -0.02418  -0.02424   1.89766
   A14        1.91597  -0.00031   0.00009   0.00114   0.00123   1.91720
   A15        1.99850  -0.00565   0.00002  -0.02709  -0.02734   1.97117
   A16        1.89297   0.00172   0.00003   0.01742   0.01766   1.91063
   A17        1.90833  -0.00015  -0.00001  -0.01425  -0.01466   1.89367
   A18        1.83704   0.00274  -0.00002   0.02514   0.02529   1.86233
   A19        1.95117   0.00195   0.00000  -0.00326  -0.00394   1.94723
   A20        1.86940  -0.00015  -0.00002   0.00677   0.00682   1.87622
   A21        1.91047   0.00180  -0.00005   0.00938   0.00933   1.91979
    D1       -0.69699   0.00120  -0.00002   0.01010   0.01011  -0.68688
    D2        1.47901  -0.00120   0.00002  -0.01574  -0.01578   1.46323
    D3       -2.77356  -0.00029   0.00001  -0.00818  -0.00814  -2.78170
    D4       -0.93516  -0.00026   0.00011   0.01727   0.01745  -0.91772
    D5       -3.08563  -0.00083  -0.00003  -0.00358  -0.00359  -3.08922
    D6        1.06611   0.00049   0.00006   0.02311   0.02329   1.08940
    D7       -3.11951   0.00035   0.00002   0.03010   0.03003  -3.08948
    D8        1.01321  -0.00022  -0.00012   0.00925   0.00900   1.02221
    D9       -1.11823   0.00110  -0.00003   0.03594   0.03587  -1.08236
   D10        1.11784   0.00013   0.00008   0.02889   0.02899   1.14683
   D11       -1.03262  -0.00044  -0.00006   0.00805   0.00795  -1.02467
   D12        3.11912   0.00088   0.00003   0.03474   0.03483  -3.12924
   D13       -1.24705   0.00210  -0.00001   0.09193   0.09182  -1.15523
   D14        0.92714   0.00216   0.00010   0.10877   0.10893   1.03607
   D15        2.99032   0.00055   0.00001   0.07925   0.07930   3.06962
   D16       -1.06071  -0.00040   0.00008   0.00219   0.00243  -1.05828
   D17        0.98472   0.00077   0.00008   0.02919   0.02922   1.01394
   D18        3.01763   0.00147   0.00007   0.03918   0.03903   3.05667
   D19        3.06183  -0.00179  -0.00008  -0.02642  -0.02628   3.03555
   D20       -1.17593  -0.00062  -0.00007   0.00058   0.00051  -1.17542
   D21        0.85699   0.00007  -0.00008   0.01058   0.01032   0.86731
   D22        1.05794  -0.00055   0.00001  -0.00742  -0.00719   1.05075
   D23        3.10337   0.00062   0.00001   0.01957   0.01960   3.12297
   D24       -1.14690   0.00132   0.00000   0.02957   0.02941  -1.11749
   D25       -1.24710   0.00112   0.00000   0.01335   0.01321  -1.23390
   D26        2.95891   0.00035  -0.00003  -0.00978  -0.00970   2.94921
   D27        0.93536  -0.00202   0.00000  -0.03071  -0.03066   0.90470
         Item               Value     Threshold  Converged?
 Maximum Force            0.012485     0.000015     NO 
 RMS     Force            0.002284     0.000010     NO 
 Maximum Displacement     0.146792     0.000060     NO 
 RMS     Displacement     0.031636     0.000040     NO 
 Predicted change in Energy=-9.324398D-04
 Lowest energy point so far.  Saving SCF results.
 GradGradGradGradGradGradGradGradGradGradGradGradGradGradGradGradGradGrad

 Leave Link  103 at Wed Sep 20 14:29:42 2023, MaxMem=    33554432 cpu:         0.0
 (Enter /mnt/storage/apps/eb/software/gaussian/09/l202.exe)
                          Input orientation:                          
 ---------------------------------------------------------------------
 Center     Atomic      Atomic             Coordinates (Angstroms)
 Number     Number       Type             X           Y           Z
 ---------------------------------------------------------------------
      1          8           0        2.401315   -0.142810    0.004716
      2          6           0        1.111494   -0.248403    0.535230
      3          6           0        0.024487    0.164842   -0.450484
      4          8           0        0.263515    1.439501   -0.993611
      5          6           0       -1.367985    0.111962    0.171949
      6          8           0       -1.720943   -1.168996    0.610745
      7          1           0        2.407238   -0.424108   -0.898297
      8          1           0        0.909537   -1.255520    0.883740
      9          1           0        1.081862    0.407360    1.398848
     10          1           0        0.048698   -0.501782   -1.308626
     11          1           0        0.196271    2.095772   -0.314912
     12          1           0       -1.400061    0.759138    1.041479
     13          1           0       -2.082412    0.497919   -0.548832
     14          1           0       -1.873015   -1.734876   -0.131943
 ---------------------------------------------------------------------
                    Distance matrix (angstroms):
                    1          2          3          4          5
     1  O    0.000000
     2  C    1.398654   0.000000
     3  C    2.439502   1.524464   0.000000
     4  O    2.840872   2.430112   1.406014   0.000000
     5  C    3.781600   2.531729   1.526170   2.404720   0.000000
     6  O    4.291077   2.979244   2.439643   3.649149   1.399277
     7  H    0.945830   1.940315   2.494975   2.842124   3.960442
     8  H    2.058205   1.084679   2.140303   3.347376   2.750229
     9  H    1.996810   1.084776   2.144035   2.731092   2.755774
    10  H    2.718185   2.143255   1.086914   1.978373   2.139106
    11  H    3.158423   2.656225   1.943291   0.946491   2.572825
    12  H    4.042134   2.753059   2.146736   2.715137   1.084411
    13  H    4.562977   3.454450   2.135331   2.566667   1.085769
    14  H    4.563250   3.400297   2.703870   3.922232   1.938613
                    6          7          8          9         10
     6  O    0.000000
     7  H    4.458020   0.000000
     8  H    2.646023   2.471843   0.000000
     9  H    3.310849   2.779358   1.749343   0.000000
    10  H    2.694586   2.395227   2.472981   3.037167   0.000000
    11  H    3.897597   3.402721   3.629968   2.563588   2.785055
    12  H    2.001549   4.433771   3.068871   2.532075   3.035097
    13  H    2.062495   4.596653   3.752142   3.716758   2.473524
    14  H    0.946009   4.541583   3.000665   3.957752   2.568675
                   11         12         13         14
    11  H    0.000000
    12  H    2.484887   0.000000
    13  H    2.792892   1.750122   0.000000
    14  H    4.357670   2.796554   2.281013   0.000000
 Stoichiometry    C3H8O3
 Framework group  C1[X(C3H8O3)]
 Deg. of freedom    36
 Full point group                 C1      NOp   1
 RotChk:  IX=0 Diff= 9.73D-03
 Largest Abelian subgroup         C1      NOp   1
 Largest concise Abelian subgroup C1      NOp   1
                         Standard orientation:                         
 ---------------------------------------------------------------------
 Center     Atomic      Atomic             Coordinates (Angstroms)
 Number     Number       Type             X           Y           Z
 ---------------------------------------------------------------------
      1          8           0        2.178692   -0.729639   -0.060489
      2          6           0        0.838186   -0.759941    0.337453
      3          6           0        0.004939    0.354581   -0.285065
      4          8           0        0.582315    1.620196   -0.080781
      5          6           0       -1.435608    0.347063    0.218885
      6          8           0       -2.110877   -0.842119   -0.077482
      7          1           0        2.242419   -0.505423   -0.977147
      8          1           0        0.379912   -1.715754    0.107370
      9          1           0        0.837404   -0.649531    1.416595
     10          1           0       -0.002585    0.233811   -1.365222
     11          1           0        0.569541    1.834225    0.841105
     12          1           0       -1.441381    0.448015    1.298572
     13          1           0       -1.949025    1.210794   -0.192533
     14          1           0       -2.282429   -0.893852   -1.006367
 ---------------------------------------------------------------------
 Rotational constants (GHZ):      5.4465165      2.3540728      1.7761933
 Leave Link  202 at Wed Sep 20 14:29:42 2023, MaxMem=    33554432 cpu:         0.0
 (Enter /mnt/storage/apps/eb/software/gaussian/09/l301.exe)
 Standard basis: 6-31G(d) (6D, 7F)
 Ernie: Thresh=  0.10000D-02 Tol=  0.10000D-05 Strict=F.
 There are   106 symmetry adapted cartesian basis functions of A   symmetry.
 There are   106 symmetry adapted basis functions of A   symmetry.
   106 basis functions,   200 primitive gaussians,   106 cartesian basis functions
    25 alpha electrons       25 beta electrons
       nuclear repulsion energy       262.4489692347 Hartrees.
 IExCor=    0 DFT=F Ex=HF Corr=None ExCW=0 ScaHFX=  1.000000
 ScaDFX=  1.000000  1.000000  1.000000  1.000000 ScalE2=  1.000000  1.000000
 IRadAn=      0 IRanWt=     -1 IRanGd=            0 ICorTp=0 IEmpDi=  4
 NAtoms=   14 NActive=   14 NUniq=   14 SFac= 1.00D+00 NAtFMM=   60 NAOKFM=F Big=F
 Integral buffers will be    131072 words long.
 Raffenetti 1 integral format.
 Two-electron integral symmetry is turned on.
 Leave Link  301 at Wed Sep 20 14:29:42 2023, MaxMem=    33554432 cpu:         0.0
 (Enter /mnt/storage/apps/eb/software/gaussian/09/l302.exe)
 NPDir=0 NMtPBC=     1 NCelOv=     1 NCel=       1 NClECP=     1 NCelD=      1
         NCelK=      1 NCelE2=     1 NClLst=     1 CellRange=     0.0.
 One-electron integrals computed using PRISM.
 NBasis=   106 RedAO= T EigKep=  3.20D-03  NBF=   106
 NBsUse=   106 1.00D-06 EigRej= -1.00D+00 NBFU=   106
 Leave Link  302 at Wed Sep 20 14:29:42 2023, MaxMem=    33554432 cpu:         0.1
 (Enter /mnt/storage/apps/eb/software/gaussian/09/l303.exe)
 DipDrv:  MaxL=1.
 Leave Link  303 at Wed Sep 20 14:29:42 2023, MaxMem=    33554432 cpu:         0.0
 (Enter /mnt/storage/apps/eb/software/gaussian/09/l401.exe)
 Initial guess from the checkpoint file:  "/scratch/nca121/18446470/Gau-721.chk"
 B after Tr=     0.000000    0.000000    0.000000
         Rot=    0.999999   -0.000682   -0.000162    0.001350 Ang=  -0.17 deg.
 Guess basis will be translated and rotated to current coordinates.
 JPrj=2 DoOrth=T DoCkMO=T.
 Generating alternative initial guess.
 ExpMin= 1.61D-01 ExpMax= 5.48D+03 ExpMxC= 8.25D+02 IAcc=1 IRadAn=         1 AccDes= 0.00D+00
 Harris functional with IExCor=  205 and IRadAn=       1 diagonalized for initial guess.
 HarFok:  IExCor=  205 AccDes= 0.00D+00 IRadAn=         1 IDoV= 1 UseB2=F ITyADJ=14
 ICtDFT=  3500011 ScaDFX=  1.000000  1.000000  1.000000  1.000000
 FoFCou: FMM=F IPFlag=           0 FMFlag=      100000 FMFlg1=           0
         NFxFlg=           0 DoJE=T BraDBF=F KetDBF=T FulRan=T
         wScrn=  0.000000 ICntrl=     500 IOpCl=  0 I1Cent=   200000004 NGrid=           0
         NMat0=    1 NMatS0=      1 NMatT0=    0 NMatD0=    1 NMtDS0=    0 NMtDT0=    0
 Petite list used in FoFCou.
 Harris En= -343.197023888068    
 Leave Link  401 at Wed Sep 20 14:29:43 2023, MaxMem=    33554432 cpu:         0.3
 (Enter /mnt/storage/apps/eb/software/gaussian/09/l508.exe)
 Direct SCF.
 Tight linear equation convergence will be used.
 RHF wavefunction.
 Quadratic Convergence SCF Method.
 Line search only if initial step raises energy.
 Integral symmetry usage will be decided dynamically.
 ReadGW:  IGet=1 IStart=         402 Next=         402 LGW=           0.
 Keep R1 ints in memory in canonical form, NReq=17056567.
 FoFCou: FMM=F IPFlag=           0 FMFlag=           0 FMFlg1=           0
         NFxFlg=           0 DoJE=F BraDBF=F KetDBF=F FulRan=T
         wScrn=  0.000000 ICntrl=     600 IOpCl=  0 I1Cent=           0 NGrid=           0
         NMat0=    1 NMatS0=   5671 NMatT0=    0 NMatD0=    1 NMtDS0=    0 NMtDT0=    0
 Symmetry not used in FoFCou.
 Iteration   1 EE= -342.802588500834                                    Grad=5.278D-02 Max rot=    0.2356 deg.
 Gradient too large for Newton-Raphson -- use scaled steepest descent instead.
 Alpha Gap=     1.872 HL deriv= 2.73D-04
     ILin= 1 X=0.000D+00 Y=-3.428025885008D+02 DE= 0.00D+00 F= -2.37D-03
     ILin= 2 X=3.000D-01 Y=-3.428032191879D+02 DE=-6.31D-04 F= -1.84D-03
     ILin= 3 X=6.000D-01 Y=-3.428036899423D+02 DE=-1.10D-03 F= -1.30D-03
     ILin= 4 X=1.200D+00 Y=-3.428041516811D+02 DE=-1.56D-03 F= -2.37D-04
     ILin= 5 X=2.400D+00 Y=-3.428031564157D+02 DE=-5.68D-04 F=  1.90D-03
     An  expanding polynomial of degree  5 produced  1.3331
     Minimum is close to point  4 DX=  1.33D-01 DF= -1.57D-05 DXR=  9.99D-02 DFR=  1.01D-02 which will be used.
 Iteration   2 EE= -342.804151681075     Delta-E=       -0.001563180241 Grad=2.539D-02 Max rot=    0.1390 deg.
 Gradient too large for Newton-Raphson -- use scaled steepest descent instead.
 Alpha Gap=     1.872 HL deriv= 2.77D-04
     ILin= 1 X=0.000D+00 Y=-3.428041516811D+02 DE= 0.00D+00 F= -5.49D-04
     ILin= 2 X=6.000D-01 Y=-3.428043913956D+02 DE=-2.40D-04 F= -2.50D-04
     ILin= 3 X=1.300D+00 Y=-3.428044448341D+02 DE=-2.93D-04 F=  9.77D-05
     Accept linear search using points  2 and  3.
     An  expanding polynomial of degree  3 produced  1.0401
 Iteration   3 EE= -342.804453432050     Delta-E=       -0.000301750975 Grad=1.582D-02 Max rot=    0.0915 deg.
 Gradient too large for Newton-Raphson -- use scaled steepest descent instead.
 Alpha Gap=     1.872 HL deriv= 3.37D-04
     ILin= 1 X=0.000D+00 Y=-3.428044534320D+02 DE= 0.00D+00 F= -2.27D-04
     ILin= 2 X=1.200D+00 Y=-3.428045447809D+02 DE=-9.13D-05 F=  7.46D-05
     Accept linear search using points  1 and  2.
     An  expanding polynomial of degree  2 produced  0.9625
 Iteration   4 EE= -342.804555415206     Delta-E=       -0.000101983156 Grad=1.262D-02 Max rot=    0.0663 deg.
 Gradient too large for Newton-Raphson -- use scaled steepest descent instead.
 Alpha Gap=     1.872 HL deriv= 8.01D-05
     ILin= 1 X=0.000D+00 Y=-3.428045554152D+02 DE= 0.00D+00 F= -1.36D-04
     ILin= 2 X=1.000D+00 Y=-3.428046012980D+02 DE=-4.59D-05 F=  4.42D-05
     Accept linear search using points  1 and  2.
     An  expanding polynomial of degree  2 produced  0.7547
 Iteration   5 EE= -342.804606720584     Delta-E=       -0.000051305378 Grad=7.825D-03 Max rot=    0.0513 deg.
 QCNR:  CnvC1=6.36D-09 CnvC2=6.36D-08
 LinEq1:  Iter=  0 NonCon=     1 RMS=1.09D-04 Max=1.38D-03 NDo=     1
 AX will form     1 AO Fock derivatives at one time.
 LinEq1:  Iter=  1 NonCon=     1 RMS=1.16D-05 Max=1.17D-04 NDo=     1
 LinEq1:  Iter=  2 NonCon=     1 RMS=2.27D-06 Max=1.49D-05 NDo=     1
 LinEq1:  Iter=  3 NonCon=     1 RMS=9.49D-07 Max=6.49D-06 NDo=     1
 LinEq1:  Iter=  4 NonCon=     1 RMS=2.04D-07 Max=1.69D-06 NDo=     1
 LinEq1:  Iter=  5 NonCon=     1 RMS=5.54D-08 Max=3.21D-07 NDo=     1
 LinEq1:  Iter=  6 NonCon=     1 RMS=1.33D-08 Max=8.83D-08 NDo=     1
 LinEq1:  Iter=  7 NonCon=     0 RMS=3.46D-09 Max=2.39D-08 NDo=     1
 Linear equations converged to 6.364D-09 6.364D-08 after     7 iterations.
 Angle between quadratic step and gradient=  37.91 degrees.
     ILin= 1 X=0.000D+00 Y=-3.428046067206D+02 DE= 0.00D+00 F= -1.51D-04
[...]
 Predicted change in Energy=-2.912859D-11
 Optimization completed.
    -- Stationary point found.
                           ----------------------------
                           !   Optimized Parameters   !
                           ! (Angstroms and Degrees)  !
 --------------------------                            --------------------------
 ! Name  Definition              Value          Derivative Info.                !
 --------------------------------------------------------------------------------
 ! R1    R(1,2)                  1.4104         -DE/DX =    0.0                 !
 ! R2    R(1,7)                  0.9472         -DE/DX =    0.0                 !
 ! R3    R(2,3)                  1.5212         -DE/DX =    0.0                 !
 ! R4    R(2,8)                  1.0838         -DE/DX =    0.0                 !
 ! R5    R(2,9)                  1.0824         -DE/DX =    0.0                 !
 ! R6    R(3,4)                  1.3987         -DE/DX =    0.0                 !
 ! R7    R(3,5)                  1.5213         -DE/DX =    0.0                 !
 ! R8    R(3,10)                 1.0942         -DE/DX =    0.0                 !
 ! R9    R(4,11)                 0.9494         -DE/DX =    0.0                 !
 ! R10   R(5,6)                  1.4042         -DE/DX =    0.0                 !
 ! R11   R(5,12)                 1.0821         -DE/DX =    0.0                 !
 ! R12   R(5,13)                 1.0854         -DE/DX =    0.0                 !
 ! R13   R(6,14)                 0.9468         -DE/DX =    0.0                 !
 ! A1    A(2,1,7)              109.7031         -DE/DX =    0.0                 !
 ! A2    A(1,2,3)              110.2438         -DE/DX =    0.0                 !
 ! A3    A(1,2,8)              111.5219         -DE/DX =    0.0                 !
 ! A4    A(1,2,9)              106.1083         -DE/DX =    0.0                 !
 ! A5    A(3,2,8)              110.968          -DE/DX =    0.0                 !
 ! A6    A(3,2,9)              109.4115         -DE/DX =    0.0                 !
 ! A7    A(8,2,9)              108.4359         -DE/DX =    0.0                 !
 ! A8    A(2,3,4)              110.1884         -DE/DX =    0.0                 !
 ! A9    A(2,3,5)              112.6137         -DE/DX =    0.0                 !
 ! A10   A(2,3,10)             108.4369         -DE/DX =    0.0                 !
 ! A11   A(4,3,5)              107.0328         -DE/DX =    0.0                 !
 ! A12   A(4,3,10)             109.9496         -DE/DX =    0.0                 !
 ! A13   A(5,3,10)             108.5924         -DE/DX =    0.0                 !
 ! A14   A(3,4,11)             108.1142         -DE/DX =    0.0                 !
 ! A15   A(3,5,6)              111.8612         -DE/DX =    0.0                 !
 ! A16   A(3,5,12)             109.5887         -DE/DX =    0.0                 !
 ! A17   A(3,5,13)             109.0925         -DE/DX =    0.0                 !
 ! A18   A(6,5,12)             106.9599         -DE/DX =    0.0                 !
 ! A19   A(6,5,13)             111.653          -DE/DX =    0.0                 !
 ! A20   A(12,5,13)            107.5625         -DE/DX =    0.0                 !
 ! A21   A(5,6,14)             109.6246         -DE/DX =    0.0                 !
 ! D1    D(7,1,2,3)            -79.7606         -DE/DX =    0.0                 !
 ! D2    D(7,1,2,8)             43.9795         -DE/DX =    0.0                 !
 ! D3    D(7,1,2,9)            161.8661         -DE/DX =    0.0                 !
 ! D4    D(1,2,3,4)            -55.5754         -DE/DX =    0.0                 !
 ! D5    D(1,2,3,5)           -174.998          -DE/DX =    0.0                 !
 ! D6    D(1,2,3,10)            64.8074         -DE/DX =    0.0                 !
 ! D7    D(8,2,3,4)           -179.6361         -DE/DX =    0.0                 !
 ! D8    D(8,2,3,5)             60.9413         -DE/DX =    0.0                 !
 ! D9    D(8,2,3,10)           -59.2532         -DE/DX =    0.0                 !
 ! D10   D(9,2,3,4)             60.7521         -DE/DX =    0.0                 !
 ! D11   D(9,2,3,5)            -58.6705         -DE/DX =    0.0                 !
 ! D12   D(9,2,3,10)          -178.8651         -DE/DX =    0.0                 !
 ! D13   D(2,3,4,11)            40.7069         -DE/DX =    0.0                 !
 ! D14   D(5,3,4,11)           163.4673         -DE/DX =    0.0                 !
 ! D15   D(10,3,4,11)          -78.7611         -DE/DX =    0.0                 !
 ! D16   D(2,3,5,6)            -63.81           -DE/DX =    0.0                 !
 ! D17   D(2,3,5,12)            54.6397         -DE/DX =    0.0                 !
 ! D18   D(2,3,5,13)           172.1626         -DE/DX =    0.0                 !
 ! D19   D(4,3,5,6)            174.9509         -DE/DX =    0.0                 !
 ! D20   D(4,3,5,12)           -66.5994         -DE/DX =    0.0                 !
 ! D21   D(4,3,5,13)            50.9234         -DE/DX =    0.0                 !
 ! D22   D(10,3,5,6)            56.2949         -DE/DX =    0.0                 !
 ! D23   D(10,3,5,12)          174.7446         -DE/DX =    0.0                 !
 ! D24   D(10,3,5,13)          -67.7325         -DE/DX =    0.0                 !
 ! D25   D(3,5,6,14)           -78.0145         -DE/DX =    0.0                 !
 ! D26   D(12,5,6,14)          161.984          -DE/DX =    0.0                 !
 ! D27   D(13,5,6,14)           44.5654         -DE/DX =    0.0                 !
 --------------------------------------------------------------------------------
 Lowest energy point so far.  Saving SCF results.
 GradGradGradGradGradGradGradGradGradGradGradGradGradGradGradGradGradGrad

 Largest change from initial coordinates is atom   11       0.161 Angstoms.
 Leave Link  103 at Wed Sep 20 14:30:43 2023, MaxMem=    33554432 cpu:         0.0
 (Enter /mnt/storage/apps/eb/software/gaussian/09/l202.exe)
                          Input orientation:                          
 ---------------------------------------------------------------------
 Center     Atomic      Atomic             Coordinates (Angstroms)
 Number     Number       Type             X           Y           Z
 ---------------------------------------------------------------------
      1          8           0        2.305117    0.148584   -0.048470
      2          6           0        1.059601   -0.150498    0.541799
      3          6           0       -0.073866    0.237917   -0.395437
      4          8           0        0.033601    1.586661   -0.749895
      5          6           0       -1.445170    0.051052    0.236122
      6          8           0       -1.706597   -1.297106    0.529012
      7          1           0        2.535128   -0.528762   -0.669396
      8          1           0        0.992089   -1.195927    0.819692
      9          1           0        1.002704    0.447417    1.442274
     10          1           0       -0.013426   -0.389150   -1.290049
     11          1           0        0.950644    1.779675   -0.902243
     12          1           0       -1.490194    0.591931    1.172279
     13          1           0       -2.199291    0.471529   -0.421679
     14          1           0       -1.950338   -1.753324   -0.264010
 ---------------------------------------------------------------------
                    Distance matrix (angstroms):
                    1          2          3          4          5
     1  O    0.000000
     2  C    1.410382   0.000000
     3  C    2.405811   1.521192   0.000000
     4  O    2.778462   2.395594   1.398678   0.000000
     5  C    3.762334   2.531391   1.521269   2.348848   0.000000
     6  O    4.303180   2.994449   2.424193   3.602778   1.404158
     7  H    0.947233   1.946087   2.733075   3.277062   4.122974
     8  H    2.070135   1.083838   2.160719   3.335431   2.799240
     9  H    2.001973   1.082402   2.140112   2.653798   2.757535
    10  H    2.684459   2.136354   1.094165   2.048856   2.138426
    11  H    2.285604   2.413027   1.919242   0.949438   3.166060
    12  H    4.011380   2.729498   2.142206   2.646921   1.082113
    13  H    4.531365   3.454792   2.138386   2.517350   1.085450
    14  H    4.666113   3.504014   2.739244   3.915048   1.939355
                    6          7          8          9         10
     6  O    0.000000
     7  H    4.474233   0.000000
     8  H    2.716181   2.245765   0.000000
     9  H    3.349287   2.785749   1.757356   0.000000
    10  H    2.645789   2.626753   2.472440   3.032813   0.000000
    11  H    4.309989   2.809571   3.438166   2.697107   2.404917
    12  H    2.007258   4.566283   3.079364   2.511638   3.034209
    13  H    2.067518   4.845273   3.808716   3.705088   2.504564
    14  H    0.946799   4.667258   3.184805   4.058956   2.581735
                   11         12         13         14
    11  H    0.000000
    12  H    3.416441   0.000000
    13  H    3.444456   1.748719   0.000000
    14  H    4.615747   2.788347   2.244283   0.000000
 Stoichiometry    C3H8O3
 Framework group  C1[X(C3H8O3)]
 Deg. of freedom    36
 Full point group                 C1      NOp   1
 RotChk:  IX=0 Diff= 1.17D-15
 Largest Abelian subgroup         C1      NOp   1
 Largest concise Abelian subgroup C1      NOp   1
                         Standard orientation:                         
 ---------------------------------------------------------------------
 Center     Atomic      Atomic             Coordinates (Angstroms)
 Number     Number       Type             X           Y           Z
 ---------------------------------------------------------------------
      1          8           0        2.165813   -0.656722   -0.070377
      2          6           0        0.825279   -0.754894    0.356835
      3          6           0       -0.011551    0.345112   -0.278560
      4          8           0        0.543403    1.597651    0.003351
      5          6           0       -1.441953    0.364793    0.238955
      6          8           0       -2.134555   -0.810485   -0.093736
      7          1           0        2.254291   -1.035448   -0.934084
      8          1           0        0.409652   -1.732265    0.140725
      9          1           0        0.841619   -0.619684    1.430634
     10          1           0       -0.034121    0.181685   -1.360216
     11          1           0        1.487208    1.525817   -0.070839
     12          1           0       -1.436134    0.432782    1.318914
     13          1           0       -1.945269    1.247782   -0.142105
     14          1           0       -2.405184   -0.774288   -1.000311
 ---------------------------------------------------------------------
 Rotational constants (GHZ):      5.7266436      2.3319541      1.7855722
 Leave Link  202 at Wed Sep 20 14:30:43 2023, MaxMem=    33554432 cpu:         0.0
 (Enter /mnt/storage/apps/eb/software/gaussian/09/l601.exe)
 Copying SCF densities to generalized density rwf, IOpCl= 0 IROHF=0.

 **********************************************************************

            Population analysis using the SCF density.

 **********************************************************************

 Orbital symmetries:
       Occupied  (A) (A) (A) (A) (A) (A) (A) (A) (A) (A) (A) (A)
                 (A) (A) (A) (A) (A) (A) (A) (A) (A) (A) (A) (A)
                 (A)
       Virtual   (A) (A) (A) (A) (A) (A) (A) (A) (A) (A) (A) (A)
                 (A) (A) (A) (A) (A) (A) (A) (A) (A) (A) (A) (A)
                 (A) (A) (A) (A) (A) (A) (A) (A) (A) (A) (A) (A)
                 (A) (A) (A) (A) (A) (A) (A) (A) (A) (A) (A) (A)
                 (A) (A) (A) (A) (A) (A) (A) (A) (A) (A) (A) (A)
                 (A) (A) (A) (A) (A) (A) (A) (A) (A) (A) (A) (A)
                 (A) (A) (A) (A) (A) (A) (A) (A) (A)
 The electronic state is 1-A.
 Alpha  occ. eigenvalues --  -20.57320 -20.56691 -20.55649 -11.27703 -11.27451
 Alpha  occ. eigenvalues --  -11.27359  -1.38999  -1.37282  -1.35690  -1.02978
 Alpha  occ. eigenvalues --   -0.92659  -0.82569  -0.72613  -0.69832  -0.68822
 Alpha  occ. eigenvalues --   -0.65515  -0.63296  -0.58700  -0.57959  -0.53077
 Alpha  occ. eigenvalues --   -0.50617  -0.50027  -0.49213  -0.43567  -0.42347
 Alpha virt. eigenvalues --    0.20931   0.21407   0.27060   0.27928   0.30488
 Alpha virt. eigenvalues --    0.31437   0.33124   0.33396   0.37926   0.41975
 Alpha virt. eigenvalues --    0.43997   0.46063   0.49704   0.74354   0.78119
 Alpha virt. eigenvalues --    0.79468   0.82506   0.85250   0.89430   0.92065
 Alpha virt. eigenvalues --    0.96408   0.99207   1.04777   1.07427   1.09488
 Alpha virt. eigenvalues --    1.10194   1.14181   1.15836   1.16411   1.19171
 Alpha virt. eigenvalues --    1.20703   1.23172   1.25941   1.27986   1.31409
 Alpha virt. eigenvalues --    1.33593   1.36993   1.41904   1.44128   1.51654
 Alpha virt. eigenvalues --    1.59353   1.62738   1.68011   1.71018   1.82453
 Alpha virt. eigenvalues --    1.86831   1.88741   1.95110   1.99607   2.02961
 Alpha virt. eigenvalues --    2.05302   2.07464   2.15085   2.17150   2.24418
 Alpha virt. eigenvalues --    2.25761   2.39280   2.42617   2.44299   2.45689
 Alpha virt. eigenvalues --    2.50906   2.54286   2.63161   2.65756   2.71926
 Alpha virt. eigenvalues --    2.78890   2.84324   2.87294   2.91018   2.93029
 Alpha virt. eigenvalues --    2.98271   3.11900   3.22112   3.25044   3.30498
 Alpha virt. eigenvalues --    4.12483   4.19996   4.33138   4.64704   4.78121
 Alpha virt. eigenvalues --    4.96926
          Condensed to atoms (all electrons):
               1          2          3          4          5          6
     1  O    8.399292   0.201138  -0.049575  -0.005180   0.002884   0.000008
     2  C    0.201138   4.862001   0.363074  -0.041769  -0.052401   0.000821
     3  C   -0.049575   0.363074   4.887306   0.191509   0.347581  -0.049525
     4  O   -0.005180  -0.041769   0.191509   8.435164  -0.048149   0.001483
     5  C    0.002884  -0.052401   0.347581  -0.048149   4.847793   0.193518
     6  O    0.000008   0.000821  -0.049525   0.001483   0.193518   8.393777
     7  H    0.260525  -0.024323  -0.001419   0.000135  -0.000047   0.000005
     8  H   -0.032715   0.388262  -0.046423   0.003462  -0.000920   0.005601
     9  H   -0.037711   0.398916  -0.046220   0.000680  -0.002648   0.000263
    10  H   -0.000181  -0.056986   0.387618  -0.040173  -0.049989   0.003412
    11  H    0.017846  -0.012573  -0.024075   0.259445   0.005192  -0.000100
    12  H   -0.000025  -0.007617  -0.048516   0.004837   0.399333  -0.035057
    13  H   -0.000060   0.005342  -0.050444   0.004108   0.402158  -0.031405
    14  H   -0.000006  -0.000376  -0.002203  -0.000047  -0.024379   0.261206
               7          8          9         10         11         12
     1  O    0.260525  -0.032715  -0.037711  -0.000181   0.017846  -0.000025
     2  C   -0.024323   0.388262   0.398916  -0.056986  -0.012573  -0.007617
     3  C   -0.001419  -0.046423  -0.046220   0.387618  -0.024075  -0.048516
     4  O    0.000135   0.003462   0.000680  -0.040173   0.259445   0.004837
     5  C   -0.000047  -0.000920  -0.002648  -0.049989   0.005192   0.399333
     6  O    0.000005   0.005601   0.000263   0.003412  -0.000100  -0.035057
     7  H    0.321703  -0.005614   0.005378   0.002546  -0.000466   0.000005
     8  H   -0.005614   0.539326  -0.026285   0.001126   0.000610   0.000535
     9  H    0.005378  -0.026285   0.517529   0.005242  -0.000099   0.003981
    10  H    0.002546   0.001126   0.005242   0.625265  -0.000514   0.005418
    11  H   -0.000466   0.000610  -0.000099  -0.000514   0.293794  -0.000283
    12  H    0.000005   0.000535   0.003981   0.005418  -0.000283   0.521649
    13  H    0.000002  -0.000031  -0.000202  -0.005101  -0.000341  -0.030946
    14  H   -0.000002   0.000024   0.000022   0.003200   0.000000   0.005479
              13         14
     1  O   -0.000060  -0.000006
     2  C    0.005342  -0.000376
     3  C   -0.050444  -0.002203
     4  O    0.004108  -0.000047
     5  C    0.402158  -0.024379
     6  O   -0.031405   0.261206
     7  H    0.000002  -0.000002
     8  H   -0.000031   0.000024
     9  H   -0.000202   0.000022
    10  H   -0.005101   0.003200
    11  H   -0.000341   0.000000
    12  H   -0.030946   0.005479
    13  H    0.542458  -0.006024
    14  H   -0.006024   0.323379
 Mulliken charges:
               1
     1  O   -0.756240
     2  C   -0.023508
     3  C    0.141313
     4  O   -0.765504
     5  C   -0.019924
     6  O   -0.744005
     7  H    0.441570
     8  H    0.173043
     9  H    0.181154
    10  H    0.119117
    11  H    0.461563
    12  H    0.181208
    13  H    0.170487
    14  H    0.439727
 Sum of Mulliken charges =   0.00000
 Mulliken charges with hydrogens summed into heavy atoms:
               1
     1  O   -0.314670
     2  C    0.330689
     3  C    0.260430
     4  O   -0.303941
     5  C    0.331770
     6  O   -0.304278
 Electronic spatial extent (au):  <R**2>=            672.0064
 Charge=              0.0000 electrons
 Dipole moment (field-independent basis, Debye):
    X=             -0.0422    Y=             -0.9402    Z=             -2.4809  Tot=              2.6534
 Quadrupole moment (field-independent basis, Debye-Ang):
   XX=            -38.3458   YY=            -40.0977   ZZ=            -32.1306
   XY=             -2.0201   XZ=              0.2517   YZ=              2.5039
 Traceless Quadrupole moment (field-independent basis, Debye-Ang):
   XX=             -1.4877   YY=             -3.2397   ZZ=              4.7274
   XY=             -2.0201   XZ=              0.2517   YZ=              2.5039
 Octapole moment (field-independent basis, Debye-Ang**2):
  XXX=             -1.6895  YYY=             -8.0372  ZZZ=             -4.3477  XYY=              7.0124
  XXY=              9.6935  XXZ=            -18.8214  XZZ=             -0.3356  YZZ=             -4.0558
  YYZ=             -4.2840  XYZ=              0.4541
 Hexadecapole moment (field-independent basis, Debye-Ang**3):
 XXXX=           -522.2145 YYYY=           -225.1120 ZZZZ=            -62.4813 XXXY=              4.8401
 XXXZ=              5.7766 YYYX=              1.9119 YYYZ=              5.2284 ZZZX=              1.3047
 ZZZY=              5.6614 XXYY=           -110.0026 XXZZ=            -72.4094 YYZZ=            -45.2270
 XXYZ=             18.1715 YYXZ=             -1.8342 ZZXY=              0.3792
 N-N= 2.631934855432D+02 E-N=-1.334532191833D+03  KE= 3.422799966050D+02
 No NMR shielding tensors so no spin-rotation constants.
 Leave Link  601 at Wed Sep 20 14:30:43 2023, MaxMem=    33554432 cpu:         0.1
 (Enter /mnt/storage/apps/eb/software/gaussian/09/l9999.exe)
 1\1\GINC-SB084\FOpt\RHF\6-31G(d)\C3H8O3\NCA121\20-Sep-2023\0\\#P hf/6-
 31G* scf(qc) opt(tight,maxcycle=100)\\Gaussian input prepared by ASE\\
 0,1\O,2.3051170903,0.1485843492,-0.0484697813\C,1.0596009426,-0.150497
 6766,0.5417990219\C,-0.0738660841,0.2379167744,-0.3954373197\O,0.03360
 05857,1.5866614548,-0.7498946508\C,-1.4451699989,0.0510519246,0.236121
 9988\O,-1.7065969329,-1.2971061779,0.5290124588\H,2.5351278722,-0.5287
 615701,-0.6693955157\H,0.992089328,-1.1959267985,0.8196924704\H,1.0027
 043924,0.4474168645,1.4422742707\H,-0.0134260353,-0.3891500704,-1.2900
 491765\H,0.950643831,1.7796751199,-0.9022433547\H,-1.4901943128,0.5919
 307425,1.1722794367\H,-2.1992912237,0.4715286959,-0.4216789074\H,-1.95
 03384545,-1.7533236324,-0.2640099511\\Version=ES64L-G09RevD.01\State=1
 -A\HF=-342.8119607\RMSD=0.000e+00\RMSF=8.086e-07\Dipole=0.1307988,-0.7
 519711,-0.7121899\Quadrupole=-0.2919149,-0.4278169,0.7197319,-0.976182
 4,-0.1072184,3.7533752\PG=C01 [X(C3H8O3)]\\@


 EXPERIENCE IS THE FRUIT OF THE TREE OF ERRORS.
 Job cpu time:       0 days  0 hours  1 minutes  8.0 seconds.
 File lengths (MBytes):  RWF=      6 Int=      0 D2E=      0 Chk=      2 Scr=      1
 Normal termination of Gaussian 09 at Wed Sep 20 14:30:43 2023.
