 Entering Gaussian System, Link 0=g09
 Initial command:
 /mnt/storage/apps/eb/software/gaussian/09/l1.exe "/scratch/nca121/18446470/Gau-2445.inp" -scrdir="/scratch/nca121/18446470/"
 Entering Link 1 = /mnt/storage/apps/eb/software/gaussian/09/l1.exe PID=      2446.
  
 Copyright (c) 1988,1990,1992,1993,1995,1998,2003,2009,2013,
            Gaussian, Inc.  All Rights Reserved.
  
 This is part of the Gaussian(R) 09 program.  It is based on
 the Gaussian(R) 03 system (copyright 2003, Gaussian, Inc.),
 the Gaussian(R) 98 system (copyright 1998, Gaussian, Inc.),
 the Gaussian(R) 94 system (copyright 1995, Gaussian, Inc.),
 the Gaussian 92(TM) system (copyright 1992, Gaussian, Inc.),
 the Gaussian 90(TM) system (copyright 1990, Gaussian, Inc.),
 the Gaussian 88(TM) system (copyright 1988, Gaussian, Inc.),
 the Gaussian 86(TM) system (copyright 1986, Carnegie Mellon
 University), and the Gaussian 82(TM) system (copyright 1983,
 Carnegie Mellon University). Gaussian is a federally registered
 trademark of Gaussian, Inc.
  
 This software contains proprietary and confidential information,
 including trade secrets, belonging to Gaussian, Inc.
  
 This software is provided under written license and may be
 used, copied, transmitted, or stored only in accord with that
 written license.
  
 The following legend is applicable only to US Government
 contracts under FAR:
  
                    RESTRICTED RIGHTS LEGEND
  
 Use, reproduction and disclosure by the US Government is
 subject to restrictions as set forth in subparagraphs (a)
 and (c) of the Commercial Computer Software - Restricted
 Rights clause in FAR 52.227-19.
  
 Gaussian, Inc.
 340 Quinnipiac St., Bldg. 40, Wallingford CT 06492
  
  
 ---------------------------------------------------------------
 Warning -- This program may not be used in any manner that
 competes with the business of Gaussian, Inc. or will provide
 assistance to any competitor of Gaussian, Inc.  The licensee
 of this program is prohibited from giving any competitor of
 Gaussian, Inc. access to this program.  By using this program,
 the user acknowledges that Gaussian, Inc. is engaged in the
 business of creating and licensing software in the field of
 computational chemistry and represents and warrants to the
 licensee that it is not a competitor of Gaussian, Inc. and that
 it will not use this program in any manner prohibited above.
 ---------------------------------------------------------------
  

 Cite this work as:
 Gaussian 09, Revision D.01,
 M. J. Frisch, G. W. Trucks, H. B. Schlegel, G. E. Scuseria, 
 M. A. Robb, J. R. Cheeseman, G. Scalmani, V. Barone, B. Mennucci, 
 G. A. Petersson, H. Nakatsuji, M. Caricato, X. Li, H. P. Hratchian, 
 A. F. Izmaylov, J. Bloino, G. Zheng, J. L. Sonnenberg, M. Hada, 
 M. Ehara, K. Toyota, R. Fukuda, J. Hasegawa, M. Ishida, T. Nakajima, 
 Y. Honda, O. Kitao, H. Nakai, T. Vreven, J. A. Montgomery, Jr., 
 J. E. Peralta, F. Ogliaro, M. Bearpark, J. J. Heyd, E. Brothers, 
 K. N. Kudin, V. N. Staroverov, T. Keith, R. Kobayashi, J. Normand, 
 K. Raghavachari, A. Rendell, J. C. Burant, S. S. Iyengar, J. Tomasi, 
 M. Cossi, N. Rega, J. M. Millam, M. Klene, J. E. Knox, J. B. Cross, 
 V. Bakken, C. Adamo, J. Jaramillo, R. Gomperts, R. E. Stratmann, 
 O. Yazyev, A. J. Austin, R. Cammi, C. Pomelli, J. W. Ochterski, 
 R. L. Martin, K. Morokuma, V. G. Zakrzewski, G. A. Voth, 
 P. Salvador, J. J. Dannenberg, S. Dapprich, A. D. Daniels, 
 O. Farkas, J. B. Foresman, J. V. Ortiz, J. Cioslowski, 
 and D. J. Fox, Gaussian, Inc., Wallingford CT, 2013.
 
 ******************************************
 Gaussian 09:  ES64L-G09RevD.01 24-Apr-2013
                20-Sep-2023 
 ******************************************
 --------------------------------------------
 #P hf/6-31G* scf(qc) opt(tight,maxcycle=100)
 --------------------------------------------
 1/6=100,7=10,18=20,19=15,38=1/1,3;
 2/9=110,12=2,17=6,18=5,40=1/2;
 3/5=1,6=6,7=1,11=9,16=1,25=1,30=1,71=1/1,2,3;
 4//1;
 5/5=2,8=3,38=5/8;
 6/7=2,8=2,9=2,10=2,28=1/1;
 7//1,2,3,16;
 1/6=100,7=10,18=20,19=15/3(2);
 2/9=110/2;
 99//99;
 2/9=110/2;
 3/5=1,6=6,7=1,11=9,16=1,25=1,30=1,71=1/1,2,3;
 4/5=5,16=3,69=1/1;
 5/5=2,8=3,38=5/8;
 7//1,2,3,16;
 1/6=100,7=10,18=20,19=15/3(-5);
 2/9=110/2;
 6/7=2,8=2,9=2,10=2,19=2,28=1/1;
 99/9=1/99;
 Leave Link    1 at Wed Sep 20 14:31:41 2023, MaxMem=           0 cpu:         0.0
 (Enter /mnt/storage/apps/eb/software/gaussian/09/l101.exe)
 ------------------------------
 Gaussian input prepared by ASE
 ------------------------------
 Symbolic Z-matrix:
 Charge =  0 Multiplicity = 1
 O                     2.32963   0.55531  -0.69837 
 C                     1.09542  -0.16346  -0.75029 
 C                     0.31027   0.08826   0.53958 
 O                     0.0348    1.49865   0.61754 
 C                    -1.00917  -0.68206   0.58097 
 O                    -1.85879  -0.21543  -0.46881 
 H                     2.09961   1.43621  -0.34083 
 H                     1.32322  -1.22549  -0.87889 
 H                     0.55108   0.19457  -1.62991 
 H                     0.9289   -0.16522   1.40689 
 H                    -0.73445   1.63774   0.02735 
 H                    -1.52602  -0.49255   1.52713 
 H                    -0.84877  -1.75775   0.46196 
 H                    -2.69571  -0.70879  -0.39433 
 
 NAtoms=     14 NQM=       14 NQMF=       0 NMMI=      0 NMMIF=      0
                NMic=       0 NMicF=      0.
                    Isotopes and Nuclear Properties:
 (Nuclear quadrupole moments (NQMom) in fm**2, nuclear magnetic moments (NMagM)
  in nuclear magnetons)

  Atom         1           2           3           4           5           6           7           8           9          10
 IAtWgt=          16          12          12          16          12          16           1           1           1           1
 AtmWgt=  15.9949146  12.0000000  12.0000000  15.9949146  12.0000000  15.9949146   1.0078250   1.0078250   1.0078250   1.0078250
 NucSpn=           0           0           0           0           0           0           1           1           1           1
 AtZEff=   0.0000000   0.0000000   0.0000000   0.0000000   0.0000000   0.0000000   0.0000000   0.0000000   0.0000000   0.0000000
 NQMom=    0.0000000   0.0000000   0.0000000   0.0000000   0.0000000   0.0000000   0.0000000   0.0000000   0.0000000   0.0000000
 NMagM=    0.0000000   0.0000000   0.0000000   0.0000000   0.0000000   0.0000000   2.7928460   2.7928460   2.7928460   2.7928460
 AtZNuc=   8.0000000   6.0000000   6.0000000   8.0000000   6.0000000   8.0000000   1.0000000   1.0000000   1.0000000   1.0000000

  Atom        11          12          13          14
 IAtWgt=           1           1           1           1
 AtmWgt=   1.0078250   1.0078250   1.0078250   1.0078250
 NucSpn=           1           1           1           1
 AtZEff=   0.0000000   0.0000000   0.0000000   0.0000000
 NQMom=    0.0000000   0.0000000   0.0000000   0.0000000
 NMagM=    2.7928460   2.7928460   2.7928460   2.7928460
 AtZNuc=   1.0000000   1.0000000   1.0000000   1.0000000
 Leave Link  101 at Wed Sep 20 14:31:41 2023, MaxMem=    33554432 cpu:         0.1
 (Enter /mnt/storage/apps/eb/software/gaussian/09/l103.exe)

 GradGradGradGradGradGradGradGradGradGradGradGradGradGradGradGradGradGrad
 Berny optimization.
 Initialization pass.
                           ----------------------------
                           !    Initial Parameters    !
                           ! (Angstroms and Degrees)  !
 --------------------------                            --------------------------
 ! Name  Definition              Value          Derivative Info.                !
 --------------------------------------------------------------------------------
 ! R1    R(1,2)                  1.4292         estimate D2E/DX2                !
 ! R2    R(1,7)                  0.9781         estimate D2E/DX2                !
 ! R3    R(2,3)                  1.5309         estimate D2E/DX2                !
 ! R4    R(2,8)                  1.0938         estimate D2E/DX2                !
 ! R5    R(2,9)                  1.0946         estimate D2E/DX2                !
 ! R6    R(3,4)                  1.4392         estimate D2E/DX2                !
 ! R7    R(3,5)                  1.5284         estimate D2E/DX2                !
 ! R8    R(3,10)                 1.0951         estimate D2E/DX2                !
 ! R9    R(4,11)                 0.9795         estimate D2E/DX2                !
 ! R10   R(5,6)                  1.4289         estimate D2E/DX2                !
 ! R11   R(5,12)                 1.0947         estimate D2E/DX2                !
 ! R12   R(5,13)                 1.0941         estimate D2E/DX2                !
 ! R13   R(6,14)                 0.9744         estimate D2E/DX2                !
 ! A1    A(2,1,7)              105.2557         estimate D2E/DX2                !
 ! A2    A(1,2,3)              109.2447         estimate D2E/DX2                !
 ! A3    A(1,2,8)              108.2245         estimate D2E/DX2                !
 ! A4    A(1,2,9)              107.1055         estimate D2E/DX2                !
 ! A5    A(3,2,8)              111.4412         estimate D2E/DX2                !
 ! A6    A(3,2,9)              111.6066         estimate D2E/DX2                !
 ! A7    A(8,2,9)              109.067          estimate D2E/DX2                !
 ! A8    A(2,3,4)              107.7555         estimate D2E/DX2                !
 ! A9    A(2,3,5)              112.5013         estimate D2E/DX2                !
 ! A10   A(2,3,10)             109.8479         estimate D2E/DX2                !
 ! A11   A(4,3,5)              109.1004         estimate D2E/DX2                !
 ! A12   A(4,3,10)             106.9819         estimate D2E/DX2                !
 ! A13   A(5,3,10)             110.4613         estimate D2E/DX2                !
 ! A14   A(3,4,11)             104.8827         estimate D2E/DX2                !
 ! A15   A(3,5,6)              109.1975         estimate D2E/DX2                !
 ! A16   A(3,5,12)             110.1059         estimate D2E/DX2                !
 ! A17   A(3,5,13)             111.4703         estimate D2E/DX2                !
 ! A18   A(6,5,12)             107.3225         estimate D2E/DX2                !
 ! A19   A(6,5,13)             109.1683         estimate D2E/DX2                !
 ! A20   A(12,5,13)            109.4789         estimate D2E/DX2                !
 ! A21   A(5,6,14)             106.8114         estimate D2E/DX2                !
 ! D1    D(7,1,2,3)            -43.2525         estimate D2E/DX2                !
 ! D2    D(7,1,2,8)           -164.7577         estimate D2E/DX2                !
 ! D3    D(7,1,2,9)             77.7795         estimate D2E/DX2                !
 ! D4    D(1,2,3,4)             61.4258         estimate D2E/DX2                !
 ! D5    D(1,2,3,5)           -178.2729         estimate D2E/DX2                !
 ! D6    D(1,2,3,10)           -54.7822         estimate D2E/DX2                !
 ! D7    D(8,2,3,4)           -179.0371         estimate D2E/DX2                !
 ! D8    D(8,2,3,5)            -58.7359         estimate D2E/DX2                !
 ! D9    D(8,2,3,10)            64.7549         estimate D2E/DX2                !
 ! D10   D(9,2,3,4)            -56.8267         estimate D2E/DX2                !
 ! D11   D(9,2,3,5)             63.4746         estimate D2E/DX2                !
 ! D12   D(9,2,3,10)          -173.0346         estimate D2E/DX2                !
 ! D13   D(2,3,4,11)            79.9979         estimate D2E/DX2                !
 ! D14   D(5,3,4,11)           -42.4235         estimate D2E/DX2                !
 ! D15   D(10,3,4,11)         -161.9323         estimate D2E/DX2                !
 ! D16   D(2,3,5,6)            -63.7267         estimate D2E/DX2                !
 ! D17   D(2,3,5,12)           178.6793         estimate D2E/DX2                !
 ! D18   D(2,3,5,13)            56.9737         estimate D2E/DX2                !
 ! D19   D(4,3,5,6)             55.7957         estimate D2E/DX2                !
 ! D20   D(4,3,5,12)           -61.7983         estimate D2E/DX2                !
 ! D21   D(4,3,5,13)           176.4961         estimate D2E/DX2                !
 ! D22   D(10,3,5,6)           173.125          estimate D2E/DX2                !
 ! D23   D(10,3,5,12)           55.531          estimate D2E/DX2                !
 ! D24   D(10,3,5,13)          -66.1746         estimate D2E/DX2                !
 ! D25   D(3,5,6,14)          -178.3761         estimate D2E/DX2                !
 ! D26   D(12,5,6,14)          -59.0428         estimate D2E/DX2                !
 ! D27   D(13,5,6,14)           59.5268         estimate D2E/DX2                !
 --------------------------------------------------------------------------------
 Trust Radius=3.00D-01 FncErr=1.00D-07 GrdErr=1.00D-07
 Number of steps in this run=    100 maximum allowed number of steps=    100.
 GradGradGradGradGradGradGradGradGradGradGradGradGradGradGradGradGradGrad

 Leave Link  103 at Wed Sep 20 14:31:41 2023, MaxMem=    33554432 cpu:         0.0
 (Enter /mnt/storage/apps/eb/software/gaussian/09/l202.exe)
                          Input orientation:                          
 ---------------------------------------------------------------------
 Center     Atomic      Atomic             Coordinates (Angstroms)
 Number     Number       Type             X           Y           Z
 ---------------------------------------------------------------------
      1          8           0        2.329629    0.555306   -0.698368
      2          6           0        1.095421   -0.163464   -0.750286
      3          6           0        0.310266    0.088259    0.539577
      4          8           0        0.034803    1.498653    0.617539
      5          6           0       -1.009173   -0.682058    0.580971
      6          8           0       -1.858787   -0.215433   -0.468808
      7          1           0        2.099606    1.436212   -0.340832
      8          1           0        1.323218   -1.225489   -0.878893
      9          1           0        0.551076    0.194574   -1.629905
     10          1           0        0.928895   -0.165217    1.406885
     11          1           0       -0.734451    1.637740    0.027354
     12          1           0       -1.526019   -0.492547    1.527133
     13          1           0       -0.848770   -1.757745    0.461961
     14          1           0       -2.695713   -0.708792   -0.394328
 ---------------------------------------------------------------------
                    Distance matrix (angstroms):
                    1          2          3          4          5
     1  O    0.000000
     2  C    1.429194   0.000000
     3  C    2.414222   1.530875   0.000000
     4  O    2.808512   2.399685   1.439156   0.000000
     5  C    3.783567   2.543718   1.528405   2.418000   0.000000
     6  O    4.264923   2.968042   2.411195   2.775594   1.428852
     7  H    0.978130   1.932616   2.407039   2.277232   3.873151
     8  H    2.053456   1.093768   2.182673   3.364561   2.804740
     9  H    2.039887   1.094638   2.185393   2.649182   2.844439
    10  H    2.629315   2.163590   1.095069   2.047176   2.169186
    11  H    3.329703   2.682814   1.937704   0.979497   2.400714
    12  H    4.573497   3.488106   2.164381   2.688569   1.094654
    13  H    4.098633   2.791264   2.181082   3.377726   1.094073
    14  H    5.190804   3.846659   3.247057   3.654094   1.948420
                    6          7          8          9         10
     6  O    0.000000
     7  H    4.291059   0.000000
     8  H    3.363560   2.824348   0.000000
     9  H    2.706232   2.366711   1.782358   0.000000
    10  H    3.360345   2.643795   2.550382   3.081281   0.000000
    11  H    2.223636   2.864970   3.640517   2.545941   2.814335
    12  H    2.042378   4.511603   3.800568   3.841009   2.479558
    13  H    2.065234   4.420267   2.607435   3.185439   2.566928
    14  H    0.974369   5.253474   4.080880   3.589479   4.083825
                   11         12         13         14
    11  H    0.000000
    12  H    2.722873   0.000000
    13  H    3.425094   1.787172   0.000000
    14  H    3.087163   2.259858   2.290138   0.000000
 Stoichiometry    C3H8O3
 Framework group  C1[X(C3H8O3)]
 Deg. of freedom    36
 Full point group                 C1      NOp   1
 Largest Abelian subgroup         C1      NOp   1
 Largest concise Abelian subgroup C1      NOp   1
                         Standard orientation:                         
 ---------------------------------------------------------------------
 Center     Atomic      Atomic             Coordinates (Angstroms)
 Number     Number       Type             X           Y           Z
 ---------------------------------------------------------------------
      1          8           0        2.322250   -0.303449   -0.114109
      2          6           0        0.977844   -0.788176   -0.128508
      3          6           0        0.069065    0.223740    0.574148
      4          8           0        0.135859    1.458698   -0.161779
      5          6           0       -1.385200   -0.242083    0.638501
      6          8           0       -1.903541   -0.348812   -0.688733
      7          1           0        2.255853    0.646228   -0.338705
      8          1           0        0.958943   -1.759262    0.374446
      9          1           0        0.695484   -0.923192   -1.177449
     10          1           0        0.449892    0.429806    1.579972
     11          1           0       -0.463956    1.329343   -0.925262
     12          1           0       -1.994217    0.497689    1.167748
     13          1           0       -1.473412   -1.211650    1.137655
     14          1           0       -2.835381   -0.621341   -0.606280
 ---------------------------------------------------------------------
 Rotational constants (GHZ):      6.3210755      2.2403148      1.9819592
 Leave Link  202 at Wed Sep 20 14:31:41 2023, MaxMem=    33554432 cpu:         0.0
 (Enter /mnt/storage/apps/eb/software/gaussian/09/l301.exe)
 Standard basis: 6-31G(d) (6D, 7F)
 Ernie: Thresh=  0.10000D-02 Tol=  0.10000D-05 Strict=F.
 There are   106 symmetry adapted cartesian basis functions of A   symmetry.
 There are   106 symmetry adapted basis functions of A   symmetry.
   106 basis functions,   200 primitive gaussians,   106 cartesian basis functions
    25 alpha electrons       25 beta electrons
       nuclear repulsion energy       263.8944664355 Hartrees.
 IExCor=    0 DFT=F Ex=HF Corr=None ExCW=0 ScaHFX=  1.000000
 ScaDFX=  1.000000  1.000000  1.000000  1.000000 ScalE2=  1.000000  1.000000
 IRadAn=      0 IRanWt=     -1 IRanGd=            0 ICorTp=0 IEmpDi=  4
 NAtoms=   14 NActive=   14 NUniq=   14 SFac= 1.00D+00 NAtFMM=   60 NAOKFM=F Big=F
 Integral buffers will be    131072 words long.
 Raffenetti 1 integral format.
 Two-electron integral symmetry is turned on.
 Leave Link  301 at Wed Sep 20 14:31:41 2023, MaxMem=    33554432 cpu:         0.0
 (Enter /mnt/storage/apps/eb/software/gaussian/09/l302.exe)
 NPDir=0 NMtPBC=     1 NCelOv=     1 NCel=       1 NClECP=     1 NCelD=      1
         NCelK=      1 NCelE2=     1 NClLst=     1 CellRange=     0.0.
 One-electron integrals computed using PRISM.
 NBasis=   106 RedAO= T EigKep=  3.48D-03  NBF=   106
 NBsUse=   106 1.00D-06 EigRej= -1.00D+00 NBFU=   106
 Leave Link  302 at Wed Sep 20 14:31:41 2023, MaxMem=    33554432 cpu:         0.1
 (Enter /mnt/storage/apps/eb/software/gaussian/09/l303.exe)
 DipDrv:  MaxL=1.
 Leave Link  303 at Wed Sep 20 14:31:41 2023, MaxMem=    33554432 cpu:         0.0
 (Enter /mnt/storage/apps/eb/software/gaussian/09/l401.exe)
 ExpMin= 1.61D-01 ExpMax= 5.48D+03 ExpMxC= 8.25D+02 IAcc=1 IRadAn=         1 AccDes= 0.00D+00
 Harris functional with IExCor=  205 and IRadAn=       1 diagonalized for initial guess.
 HarFok:  IExCor=  205 AccDes= 0.00D+00 IRadAn=         1 IDoV= 1 UseB2=F ITyADJ=14
 ICtDFT=  3500011 ScaDFX=  1.000000  1.000000  1.000000  1.000000
 FoFCou: FMM=F IPFlag=           0 FMFlag=      100000 FMFlg1=           0
         NFxFlg=           0 DoJE=T BraDBF=F KetDBF=T FulRan=T
         wScrn=  0.000000 ICntrl=     500 IOpCl=  0 I1Cent=   200000004 NGrid=           0
         NMat0=    1 NMatS0=      1 NMatT0=    0 NMatD0=    1 NMtDS0=    0 NMtDT0=    0
 Petite list used in FoFCou.
 Harris En= -343.191735836778    
 JPrj=0 DoOrth=F DoCkMO=F.
 Leave Link  401 at Wed Sep 20 14:31:41 2023, MaxMem=    33554432 cpu:         0.3
 (Enter /mnt/storage/apps/eb/software/gaussian/09/l508.exe)
 Direct SCF.
 Tight linear equation convergence will be used.
 RHF wavefunction.
 Quadratic Convergence SCF Method.
 Line search only if initial step raises energy.
 Integral symmetry usage will be decided dynamically.
 ReadGW:  IGet=1 IStart=         402 Next=         402 LGW=           0.
 Keep R1 ints in memory in canonical form, NReq=17057112.
 FoFCou: FMM=F IPFlag=           0 FMFlag=           0 FMFlg1=           0
         NFxFlg=           0 DoJE=F BraDBF=F KetDBF=F FulRan=T
         wScrn=  0.000000 ICntrl=     600 IOpCl=  0 I1Cent=           0 NGrid=           0
         NMat0=    1 NMatS0=   5671 NMatT0=    0 NMatD0=    1 NMtDS0=    0 NMtDT0=    0
 Symmetry not used in FoFCou.
 Iteration   1 EE= -342.576290088053                                    Grad=9.161D-01 Max rot=    6.8687 deg.
 Gradient too large for Newton-Raphson -- use scaled steepest descent instead.
 Alpha Gap=     0.608 HL deriv= 7.89D-03
     ILin= 1 X=0.000D+00 Y=-3.425762900881D+02 DE= 0.00D+00 F= -6.23D-01
     ILin= 2 X=3.000D-01 Y=-3.427232412357D+02 DE=-1.47D-01 F= -3.56D-01
     ILin= 3 X=5.000D-01 Y=-3.427765047540D+02 DE=-2.00D-01 F= -1.76D-01
     ILin= 4 X=1.000D+00 Y=-3.427519421823D+02 DE=-1.76D-01 F=  2.75D-01
     An  expanding polynomial of degree  4 produced  0.6959
 Iteration   2 EE= -342.793768415601     Delta-E=       -0.217478327548 Grad=2.894D-01 Max rot=    2.7612 deg.
 Gradient too large for Newton-Raphson -- use scaled steepest descent instead.
 Alpha Gap=     0.674 HL deriv= 2.23D-03
     ILin= 1 X=0.000D+00 Y=-3.427937684156D+02 DE= 0.00D+00 F= -2.81D-02
     ILin= 2 X=5.000D-01 Y=-3.428036688402D+02 DE=-9.90D-03 F= -1.16D-02
     ILin= 3 X=9.000D-01 Y=-3.428056691826D+02 DE=-1.19D-02 F=  1.55D-03
     Accept linear search using points  2 and  3.
     An  expanding polynomial of degree  3 produced  0.7206
 Iteration   3 EE= -342.805421023069     Delta-E=       -0.011652607468 Grad=9.109D-02 Max rot=    0.8229 deg.
 Gradient too large for Newton-Raphson -- use scaled steepest descent instead.
 Alpha Gap=     0.668 HL deriv= 2.38D-04
     ILin= 1 X=0.000D+00 Y=-3.428054210231D+02 DE= 0.00D+00 F= -3.46D-03
     ILin= 2 X=7.000D-01 Y=-3.428069928366D+02 DE=-1.57D-03 F= -1.03D-03
     Reject lnstep minimum 1.088D+00 FVal=-3.428073933157D+02 Lims=  0.00D+00  7.00D-01
     ILin= 3 X=1.400D+00 Y=-3.428068602857D+02 DE=-1.44D-03 F=  1.41D-03
     An  expanding polynomial of degree  3 produced  0.9956
 Iteration   4 EE= -342.807144729746     Delta-E=       -0.001723706677 Grad=2.197D-02 Max rot=    0.1138 deg.
 Gradient too large for Newton-Raphson -- use scaled steepest descent instead.
 Alpha Gap=     0.673 HL deriv= 4.11D-04
     ILin= 1 X=0.000D+00 Y=-3.428071447297D+02 DE= 0.00D+00 F= -5.97D-04
     ILin= 2 X=8.000D-01 Y=-3.428073401056D+02 DE=-1.95D-04 F=  1.08D-04
     Accept linear search using points  1 and  2.
     An  expanding polynomial of degree  2 produced  0.6219
 Iteration   5 EE= -342.807345388746     Delta-E=       -0.000200659000 Grad=6.960D-03 Max rot=    0.0402 deg.
 QCNR:  CnvC1=6.36D-09 CnvC2=6.36D-08
 LinEq1:  Iter=  0 NonCon=     1 RMS=8.20D-05 Max=8.84D-04 NDo=     1
 AX will form     1 AO Fock derivatives at one time.
 LinEq1:  Iter=  1 NonCon=     1 RMS=1.83D-05 Max=1.16D-04 NDo=     1
 LinEq1:  Iter=  2 NonCon=     1 RMS=5.02D-06 Max=3.52D-05 NDo=     1
 LinEq1:  Iter=  3 NonCon=     1 RMS=6.58D-07 Max=5.48D-06 NDo=     1
 LinEq1:  Iter=  4 NonCon=     1 RMS=1.96D-07 Max=1.53D-06 NDo=     1
 LinEq1:  Iter=  5 NonCon=     1 RMS=5.75D-08 Max=4.34D-07 NDo=     1
 LinEq1:  Iter=  6 NonCon=     1 RMS=1.69D-08 Max=1.36D-07 NDo=     1
 LinEq1:  Iter=  7 NonCon=     0 RMS=5.21D-09 Max=3.46D-08 NDo=     1
 Linear equations converged to 6.364D-09 6.364D-08 after     7 iterations.
 Angle between quadratic step and gradient=  33.53 degrees.
     ILin= 1 X=0.000D+00 Y=-3.428073453887D+02 DE= 0.00D+00 F= -8.87D-05
     ILin= 2 X=1.000D+00 Y=-3.428073897331D+02 DE=-4.43D-05 F=  3.03D-08
     Accept linear search using points  1 and  2.
     An  expanding polynomial of degree  2 produced  0.9997
     Minimum is close to point  2 DX= -3.41D-04 DF= -5.17D-12 DXR=  3.41D-04 DFR=  1.17D-07 which will be used.
 Iteration   6 EE= -342.807389733110     Delta-E=       -0.000044344364 Grad=5.794D-06 Max rot=    0.0000 deg.
 QCNR:  CnvC1=5.79D-11 CnvC2=5.79D-10
 LinEq1:  Iter=  0 NonCon=     1 RMS=7.77D-08 Max=7.31D-07 NDo=     1
 LinEq1:  Iter=  1 NonCon=     1 RMS=2.64D-08 Max=2.67D-07 NDo=     1
 LinEq1:  Iter=  2 NonCon=     1 RMS=4.33D-09 Max=3.03D-08 NDo=     1
 LinEq1:  Iter=  3 NonCon=     1 RMS=1.82D-09 Max=1.10D-08 NDo=     1
 LinEq1:  Iter=  4 NonCon=     1 RMS=4.21D-10 Max=2.92D-09 NDo=     1
 LinEq1:  Iter=  5 NonCon=     1 RMS=1.06D-10 Max=7.46D-10 NDo=     1
 LinEq1:  Iter=  6 NonCon=     0 RMS=2.82D-11 Max=1.90D-10 NDo=     1
 Linear equations converged to 5.794D-11 5.794D-10 after     6 iterations.
 Angle between quadratic step and gradient=  37.72 degrees.
     ILin= 1 X=0.000D+00 Y=-3.428073897331D+02 DE= 0.00D+00 F= -4.88D-11
     ILin= 2 X=1.000D+00 Y=-3.428073897331D+02 DE=-2.80D-11
 Iteration   7 EE= -342.807389733138     Delta-E=       -0.000000000028 Grad=3.395D-09 Max rot=    0.0000 deg.
 Rotation gradient small -- convergence achieved.
 SCF Done:  E(RHF) =  -342.807389733     a.u. after    7 cycles
            Convg  =    0.3395D-08                    28 Fock formations.
              S**2 =  0.0000                  -V/T =  2.0027
 Leave Link  508 at Wed Sep 20 14:31:43 2023, MaxMem=    33554432 cpu:         1.4
 (Enter /mnt/storage/apps/eb/software/gaussian/09/l601.exe)
 Copying SCF densities to generalized density rwf, IOpCl= 0 IROHF=0.

 **********************************************************************

            Population analysis using the SCF density.

 **********************************************************************

 Orbital symmetries:
       Occupied  (A) (A) (A) (A) (A) (A) (A) (A) (A) (A) (A) (A)
                 (A) (A) (A) (A) (A) (A) (A) (A) (A) (A) (A) (A)
                 (A)
       Virtual   (A) (A) (A) (A) (A) (A) (A) (A) (A) (A) (A) (A)
                 (A) (A) (A) (A) (A) (A) (A) (A) (A) (A) (A) (A)
                 (A) (A) (A) (A) (A) (A) (A) (A) (A) (A) (A) (A)
                 (A) (A) (A) (A) (A) (A) (A) (A) (A) (A) (A) (A)
                 (A) (A) (A) (A) (A) (A) (A) (A) (A) (A) (A) (A)
                 (A) (A) (A) (A) (A) (A) (A) (A) (A) (A) (A) (A)
                 (A) (A) (A) (A) (A) (A) (A) (A) (A)
 The electronic state is 1-A.
 Alpha  occ. eigenvalues --  -20.58575 -20.56855 -20.54598 -11.29449 -11.29046
 Alpha  occ. eigenvalues --  -11.27029  -1.38607  -1.35788  -1.32969  -1.03033
 Alpha  occ. eigenvalues --   -0.91688  -0.81969  -0.72969  -0.68204  -0.66560
 Alpha  occ. eigenvalues --   -0.65082  -0.61645  -0.59656  -0.57372  -0.54122
 Alpha  occ. eigenvalues --   -0.50963  -0.49590  -0.46931  -0.45597  -0.41936
 Alpha virt. eigenvalues --    0.19441   0.24901   0.25969   0.28486   0.29395
 Alpha virt. eigenvalues --    0.30244   0.31424   0.34384   0.35600   0.40402
 Alpha virt. eigenvalues --    0.41567   0.43228   0.46610   0.76407   0.77441
 Alpha virt. eigenvalues --    0.79322   0.79575   0.83041   0.89933   0.93079
 Alpha virt. eigenvalues --    0.94506   0.95157   1.06602   1.07743   1.09102
 Alpha virt. eigenvalues --    1.10039   1.11465   1.14446   1.16173   1.17979
 Alpha virt. eigenvalues --    1.19391   1.20661   1.25441   1.27336   1.28466
 Alpha virt. eigenvalues --    1.33268   1.37747   1.44914   1.45761   1.49898
 Alpha virt. eigenvalues --    1.56280   1.64126   1.66345   1.70527   1.82990
 Alpha virt. eigenvalues --    1.85075   1.89140   1.92632   1.96707   2.01010
 Alpha virt. eigenvalues --    2.05312   2.11239   2.12952   2.18005   2.21499
 Alpha virt. eigenvalues --    2.27646   2.35666   2.42673   2.43376   2.46356
 Alpha virt. eigenvalues --    2.49202   2.57203   2.60530   2.67647   2.69474
 Alpha virt. eigenvalues --    2.71517   2.79736   2.83688   2.85259   2.93446
 Alpha virt. eigenvalues --    2.95780   3.09657   3.15932   3.24909   3.27261
 Alpha virt. eigenvalues --    4.12306   4.18578   4.26159   4.67643   4.77097
 Alpha virt. eigenvalues --    4.96481
          Condensed to atoms (all electrons):
               1          2          3          4          5          6
     1  O    8.403581   0.217505  -0.036636  -0.004479   0.003118   0.000000
     2  C    0.217505   4.806670   0.359052  -0.059375  -0.057974   0.000924
     3  C   -0.036636   0.359052   4.874301   0.200515   0.337619  -0.053660
     4  O   -0.004479  -0.059375   0.200515   8.441860  -0.039896  -0.002047
     5  C    0.003118  -0.057974   0.337619  -0.039896   4.889446   0.191538
     6  O    0.000000   0.000924  -0.053660  -0.002047   0.191538   8.424714
     7  H    0.257179  -0.030150  -0.012708   0.016915   0.000607  -0.000005
     8  H   -0.032962   0.387566  -0.039563   0.003325  -0.000215   0.000235
     9  H   -0.043279   0.392995  -0.037168  -0.001468  -0.001834   0.002902
    10  H    0.001661  -0.043830   0.403869  -0.034305  -0.038133   0.001958
    11  H    0.000085  -0.000340  -0.029209   0.256385  -0.013406   0.015344
    12  H   -0.000051   0.004828  -0.035333  -0.000451   0.397222  -0.040790
    13  H   -0.000013  -0.003211  -0.039445   0.002964   0.388932  -0.038202
    14  H    0.000001  -0.000203   0.005553   0.000012  -0.022449   0.261088
               7          8          9         10         11         12
     1  O    0.257179  -0.032962  -0.043279   0.001661   0.000085  -0.000051
     2  C   -0.030150   0.387566   0.392995  -0.043830  -0.000340   0.004828
     3  C   -0.012708  -0.039563  -0.037168   0.403869  -0.029209  -0.035333
     4  O    0.016915   0.003325  -0.001468  -0.034305   0.256385  -0.000451
     5  C    0.000607  -0.000215  -0.001834  -0.038133  -0.013406   0.397222
     6  O   -0.000005   0.000235   0.002902   0.001958   0.015344  -0.040790
     7  H    0.309987   0.005244  -0.001118  -0.000135  -0.000315  -0.000011
     8  H    0.005244   0.550658  -0.033560  -0.000921  -0.000045  -0.000155
     9  H   -0.001118  -0.033560   0.551098   0.004093   0.002282  -0.000084
    10  H   -0.000135  -0.000921   0.004093   0.508488   0.004693  -0.002730
    11  H   -0.000315  -0.000045   0.002282   0.004693   0.299868  -0.000291
    12  H   -0.000011  -0.000155  -0.000084  -0.002730  -0.000291   0.549007
    13  H   -0.000025   0.001113   0.000251   0.000988   0.000626  -0.036692
    14  H    0.000001  -0.000015  -0.000006  -0.000100  -0.000441  -0.003651
              13         14
     1  O   -0.000013   0.000001
     2  C   -0.003211  -0.000203
     3  C   -0.039445   0.005553
     4  O    0.002964   0.000012
     5  C    0.388932  -0.022449
     6  O   -0.038202   0.261088
     7  H   -0.000025   0.000001
     8  H    0.001113  -0.000015
     9  H    0.000251  -0.000006
    10  H    0.000988  -0.000100
    11  H    0.000626  -0.000441
    12  H   -0.036692  -0.003651
    13  H    0.568694  -0.003431
    14  H   -0.003431   0.312289
 Mulliken charges:
               1
     1  O   -0.765707
     2  C    0.025541
     3  C    0.102814
     4  O   -0.779956
     5  C   -0.034574
     6  O   -0.764000
     7  H    0.454534
     8  H    0.159296
     9  H    0.164896
    10  H    0.194404
    11  H    0.464765
    12  H    0.169184
    13  H    0.157451
    14  H    0.451352
 Sum of Mulliken charges =   0.00000
 Mulliken charges with hydrogens summed into heavy atoms:
               1
     1  O   -0.311174
     2  C    0.349733
     3  C    0.297218
     4  O   -0.315191
     5  C    0.292061
     6  O   -0.312647
 Electronic spatial extent (au):  <R**2>=            648.7356
 Charge=              0.0000 electrons
 Dipole moment (field-independent basis, Debye):
    X=             -3.9901    Y=             -0.8457    Z=              0.7917  Tot=              4.1549
 Quadrupole moment (field-independent basis, Debye-Ang):
   XX=            -36.2062   YY=            -38.3303   ZZ=            -35.1200
   XY=              3.8878   XZ=             -1.3487   YZ=             -1.9824
 Traceless Quadrupole moment (field-independent basis, Debye-Ang):
   XX=              0.3460   YY=             -1.7782   ZZ=              1.4321
   XY=              3.8878   XZ=             -1.3487   YZ=             -1.9824
 Octapole moment (field-independent basis, Debye-Ang**2):
  XXX=            -46.8525  YYY=             -4.9990  ZZZ=             -3.5388  XYY=             -1.3269
  XXY=              5.4076  XXZ=             -2.9511  XZZ=              0.4762  YZZ=              3.9530
  YYZ=             -2.6639  XYZ=             -0.3139
 Hexadecapole moment (field-independent basis, Debye-Ang**3):
 XXXX=           -451.4852 YYYY=           -175.3664 ZZZZ=           -100.9361 XXXY=             52.8836
 XXXZ=             11.2588 YYYX=              0.3813 YYYZ=             -6.3013 ZZZX=              4.2196
 ZZZY=             -2.2365 XXYY=            -99.9935 XXZZ=           -100.4288 YYZZ=            -41.1398
 XXYZ=             -0.1488 YYXZ=              2.9275 ZZXY=              0.6075
 N-N= 2.638944664355D+02 E-N=-1.335674333725D+03  KE= 3.418752847501D+02
 No NMR shielding tensors so no spin-rotation constants.
 Leave Link  601 at Wed Sep 20 14:31:43 2023, MaxMem=    33554432 cpu:         0.1
 (Enter /mnt/storage/apps/eb/software/gaussian/09/l701.exe)
 Compute integral first derivatives.
 ... and contract with generalized density number  0.
 Leave Link  701 at Wed Sep 20 14:31:43 2023, MaxMem=    33554432 cpu:         0.1
 (Enter /mnt/storage/apps/eb/software/gaussian/09/l702.exe)
 L702 exits ... SP integral derivatives will be done elsewhere.
 Leave Link  702 at Wed Sep 20 14:31:43 2023, MaxMem=    33554432 cpu:         0.0
 (Enter /mnt/storage/apps/eb/software/gaussian/09/l703.exe)
 Compute integral first derivatives, UseDBF=F ICtDFT=           0.
 Integral derivatives from FoFJK, PRISM(SPDF).
 Calling FoFJK, ICntrl=      2127 FMM=F ISym2X=0 I1Cent= 0 IOpClX= 0 NMat=1 NMatS=1 NMatT=0.
 FoFJK:  IHMeth= 1 ICntrl=    2127 DoSepK=F KAlg= 0 I1Cent=   0 FoldK=F
 IRaf=         0 NMat=   1 IRICut=       1 DoRegI=T DoRafI=F ISym2E= 0.
 FoFCou: FMM=F IPFlag=           0 FMFlag=      100000 FMFlg1=         800
         NFxFlg=           0 DoJE=F BraDBF=F KetDBF=F FulRan=T
         wScrn=  0.000000 ICntrl=    2127 IOpCl=  0 I1Cent=           0 NGrid=           0
         NMat0=    1 NMatS0=      1 NMatT0=    0 NMatD0=    1 NMtDS0=    0 NMtDT0=    0
 Symmetry not used in FoFCou.
 Leave Link  703 at Wed Sep 20 14:31:44 2023, MaxMem=    33554432 cpu:         1.5
 (Enter /mnt/storage/apps/eb/software/gaussian/09/l716.exe)
 Dipole        =-1.56984385D+00-3.32728957D-01 3.11484578D-01
 ***** Axes restored to original set *****
 -------------------------------------------------------------------
 Center     Atomic                   Forces (Hartrees/Bohr)
 Number     Number              X              Y              Z
 -------------------------------------------------------------------
      1        8          -0.021459892    0.013040603    0.014076789
      2        6           0.018881148    0.011684838   -0.002231930
      3        6          -0.010395208    0.013837132   -0.009484485
      4        8          -0.019292339   -0.017936349   -0.015967717
      5        6          -0.011709215    0.000510309    0.000363055
      6        8          -0.012129931   -0.018357385    0.010027377
      7        1           0.008437294   -0.024866124   -0.012223274
      8        1           0.000514779    0.008201033    0.001038390
      9        1          -0.003740195   -0.007267470    0.008243054
     10        1          -0.005795166    0.001735394   -0.007775879
     11        1           0.023108569   -0.000035448    0.017991788
     12        1           0.008280245   -0.003556059   -0.002244258
     13        1           0.002378127    0.005789093    0.003335873
     14        1           0.022921784    0.017220434   -0.005148784
 -------------------------------------------------------------------
 Cartesian Forces:  Max     0.024866124 RMS     0.012314660
 Leave Link  716 at Wed Sep 20 14:31:44 2023, MaxMem=    33554432 cpu:         0.0
 (Enter /mnt/storage/apps/eb/software/gaussian/09/l103.exe)

 GradGradGradGradGradGradGradGradGradGradGradGradGradGradGradGradGradGrad
 Berny optimization.
 FormGI is forming the generalized inverse of G from B-inverse, IUseBI=4.
 Internal  Forces:  Max     0.028994229 RMS     0.008404158
 Search for a local minimum.
 Step number   1 out of a maximum of  100
 All quantities printed in internal units (Hartrees-Bohrs-Radians)
 RMS Force = .84042D-02 SwitMx=.10000D-02 MixMth= 1
 Mixed Optimization -- RFO/linear search
 Second derivative matrix not updated -- first step.
 ITU=  0
     Eigenvalues ---    0.00358   0.00390   0.01174   0.01306   0.01310
     Eigenvalues ---    0.04172   0.04919   0.05165   0.05195   0.05545
     Eigenvalues ---    0.05713   0.07516   0.11400   0.11496   0.13709
     Eigenvalues ---    0.13720   0.16000   0.16000   0.16000   0.16639
     Eigenvalues ---    0.19535   0.22017   0.22047   0.29343   0.29571
     Eigenvalues ---    0.34233   0.34280   0.34282   0.34346   0.34381
     Eigenvalues ---    0.39701   0.41105   0.41155   0.51483   0.51750
     Eigenvalues ---    0.52494
 RFO step:  Lambda=-1.28492726D-02 EMin= 3.57525470D-03
 Linear search not attempted -- first point.
 Iteration  1 RMS(Cart)=  0.04679617 RMS(Int)=  0.00164306
 Iteration  2 RMS(Cart)=  0.00170534 RMS(Int)=  0.00047803
 Iteration  3 RMS(Cart)=  0.00000221 RMS(Int)=  0.00047803
 Iteration  4 RMS(Cart)=  0.00000000 RMS(Int)=  0.00047803
 ITry= 1 IFail=0 DXMaxC= 1.23D-01 DCOld= 1.00D+10 DXMaxT= 3.00D-01 DXLimC= 3.00D+00 Rises=F
 Variable       Old X    -DE/DX   Delta X   Delta X   Delta X     New X
                                 (Linear)    (Quad)   (Total)
    R1        2.70079  -0.01713   0.00000  -0.04040  -0.04040   2.66038
    R2        1.84840  -0.02885   0.00000  -0.05439  -0.05439   1.79401
    R3        2.89294  -0.00628   0.00000  -0.02051  -0.02051   2.87243
    R4        2.06692  -0.00798   0.00000  -0.02237  -0.02237   2.04455
    R5        2.06857  -0.00714   0.00000  -0.02008  -0.02008   2.04849
    R6        2.71961  -0.01823   0.00000  -0.04449  -0.04449   2.67512
    R7        2.88827  -0.00905   0.00000  -0.02932  -0.02932   2.85895
    R8        2.06938  -0.00983   0.00000  -0.02769  -0.02769   2.04169
    R9        1.85098  -0.02899   0.00000  -0.05495  -0.05495   1.79603
   R10        2.70014  -0.01037   0.00000  -0.02444  -0.02444   2.67570
   R11        2.06860  -0.00647   0.00000  -0.01818  -0.01818   2.05042
   R12        2.06750  -0.00571   0.00000  -0.01601  -0.01601   2.05148
   R13        1.84129  -0.02880   0.00000  -0.05356  -0.05356   1.78774
    A1        1.83706   0.00369   0.00000   0.02136   0.02136   1.85842
    A2        1.90668   0.00307   0.00000   0.01853   0.01844   1.92512
    A3        1.88887  -0.00350   0.00000  -0.02751  -0.02729   1.86159
    A4        1.86934   0.00585   0.00000   0.06650   0.06677   1.93611
    A5        1.94502   0.00030   0.00000  -0.01128  -0.01159   1.93342
    A6        1.94790  -0.00597   0.00000  -0.03271  -0.03363   1.91428
    A7        1.90358   0.00051   0.00000  -0.01046  -0.01093   1.89265
    A8        1.88069   0.00149   0.00000   0.02581   0.02496   1.90565
    A9        1.96352   0.00271   0.00000   0.02469   0.02399   1.98751
   A10        1.91721  -0.00182   0.00000  -0.02249  -0.02216   1.89505
   A11        1.90416   0.00015   0.00000   0.01753   0.01650   1.92066
   A12        1.86719  -0.00122   0.00000  -0.02457  -0.02426   1.84292
   A13        1.92791  -0.00141   0.00000  -0.02185  -0.02161   1.90631
   A14        1.83055   0.00759   0.00000   0.04392   0.04392   1.87447
   A15        1.90586  -0.01304   0.00000  -0.05333  -0.05320   1.85265
   A16        1.92171  -0.00080   0.00000  -0.01494  -0.01439   1.90732
   A17        1.94552   0.00018   0.00000  -0.01682  -0.01674   1.92878
   A18        1.87313   0.00869   0.00000   0.06211   0.06155   1.93468
   A19        1.90535   0.00655   0.00000   0.03443   0.03334   1.93868
   A20        1.91077  -0.00123   0.00000  -0.00808  -0.00938   1.90138
   A21        1.86421   0.00790   0.00000   0.04570   0.04570   1.90991
    D1       -0.75490  -0.00032   0.00000  -0.04844  -0.04912  -0.80402
    D2       -2.87556  -0.00039   0.00000  -0.02901  -0.02922  -2.90479
    D3        1.35751  -0.00228   0.00000  -0.03781  -0.03692   1.32059
    D4        1.07208   0.00043   0.00000  -0.03311  -0.03348   1.03860
    D5       -3.11145   0.00327   0.00000   0.02104   0.02112  -3.09033
    D6       -0.95613   0.00202   0.00000  -0.00630  -0.00642  -0.96254
    D7       -3.12479  -0.00173   0.00000  -0.06229  -0.06275   3.09565
    D8       -1.02513   0.00110   0.00000  -0.00814  -0.00815  -1.03329
    D9        1.13019  -0.00014   0.00000  -0.03548  -0.03568   1.09450
   D10       -0.99181  -0.00512   0.00000  -0.10720  -0.10708  -1.09889
   D11        1.10784  -0.00229   0.00000  -0.05305  -0.05248   1.05536
   D12       -3.02002  -0.00353   0.00000  -0.08039  -0.08001  -3.10004
   D13        1.39623   0.00181   0.00000   0.01590   0.01611   1.41234
   D14       -0.74043  -0.00248   0.00000  -0.04047  -0.04064  -0.78107
   D15       -2.82625  -0.00019   0.00000  -0.01000  -0.01003  -2.83628
   D16       -1.11224  -0.00085   0.00000  -0.01852  -0.01878  -1.13102
   D17        3.11854  -0.00319   0.00000  -0.05350  -0.05367   3.06487
   D18        0.99438  -0.00121   0.00000  -0.02165  -0.02163   0.97274
   D19        0.97382   0.00282   0.00000   0.04123   0.04124   1.01506
   D20       -1.07858   0.00049   0.00000   0.00625   0.00635  -1.07224
   D21        3.08044   0.00247   0.00000   0.03810   0.03838   3.11882
   D22        3.02160   0.00061   0.00000   0.00912   0.00901   3.03061
   D23        0.96920  -0.00172   0.00000  -0.02586  -0.02589   0.94331
   D24       -1.15496   0.00026   0.00000   0.00599   0.00615  -1.14881
   D25       -3.11325   0.00020   0.00000   0.00960   0.00983  -3.10342
   D26       -1.03049  -0.00297   0.00000  -0.00207  -0.00360  -1.03410
   D27        1.03894   0.00405   0.00000   0.04219   0.04349   1.08243
         Item               Value     Threshold  Converged?
 Maximum Force            0.028994     0.000015     NO 
 RMS     Force            0.008404     0.000010     NO 
 Maximum Displacement     0.123087     0.000060     NO 
 RMS     Displacement     0.046804     0.000040     NO 
 Predicted change in Energy=-6.976993D-03
 Lowest energy point so far.  Saving SCF results.
 GradGradGradGradGradGradGradGradGradGradGradGradGradGradGradGradGradGrad

 Leave Link  103 at Wed Sep 20 14:31:44 2023, MaxMem=    33554432 cpu:         0.0
 (Enter /mnt/storage/apps/eb/software/gaussian/09/l202.exe)
                          Input orientation:                          
 ---------------------------------------------------------------------
 Center     Atomic      Atomic             Coordinates (Angstroms)
 Number     Number       Type             X           Y           Z
 ---------------------------------------------------------------------
      1          8           0        2.303162    0.552694   -0.692648
      2          6           0        1.089054   -0.158231   -0.742352
      3          6           0        0.280702    0.089595    0.520826
      4          8           0        0.015235    1.475071    0.638935
      5          6           0       -1.012281   -0.693380    0.583877
      6          8           0       -1.819115   -0.207077   -0.473173
      7          1           0        2.089455    1.430573   -0.401242
      8          1           0        1.346150   -1.205145   -0.834260
      9          1           0        0.507103    0.129439   -1.610490
     10          1           0        0.891527   -0.162933    1.375474
     11          1           0       -0.725151    1.671551    0.076330
     12          1           0       -1.488558   -0.521873    1.543588
     13          1           0       -0.819533   -1.755749    0.470987
     14          1           0       -2.657746   -0.644536   -0.455853
 ---------------------------------------------------------------------
                    Distance matrix (angstroms):
                    1          2          3          4          5
     1  O    0.000000
     2  C    1.407815   0.000000
     3  C    2.403606   1.520023   0.000000
     4  O    2.803302   2.393474   1.415614   0.000000
     5  C    3.764887   2.541825   1.512889   2.400208   0.000000
     6  O    4.197450   2.921008   2.342068   2.726031   1.415919
     7  H    0.949347   1.908260   2.433108   2.320848   3.886181
     8  H    2.006470   1.081931   2.155874   3.335446   2.799145
     9  H    2.060924   1.084013   2.143677   2.666940   2.792992
    10  H    2.604220   2.127023   1.080417   1.998358   2.128964
    11  H    3.318711   2.703642   1.926629   0.950421   2.435765
    12  H    4.531289   3.464367   2.133124   2.658491   1.085034
    13  H    4.053909   2.768927   2.149023   3.341144   1.085598
    14  H    5.108819   3.789074   3.182346   3.582753   1.947043
                    6          7          8          9         10
     6  O    0.000000
     7  H    4.238395   0.000000
     8  H    3.338477   2.772547   0.000000
     9  H    2.611134   2.378879   1.757171   0.000000
    10  H    3.281315   2.670395   2.485119   3.024772   0.000000
    11  H    2.242311   2.864987   3.659897   2.596520   2.768891
    12  H    2.067774   4.516258   3.762525   3.788809   2.412863
    13  H    2.070987   4.401777   2.587860   3.105872   2.506569
    14  H    0.946029   5.181213   4.060622   3.456658   4.022815
                   11         12         13         14
    11  H    0.000000
    12  H    2.747134   0.000000
    13  H    3.451239   1.766499   0.000000
    14  H    3.063071   2.319442   2.339413   0.000000
 Stoichiometry    C3H8O3
 Framework group  C1[X(C3H8O3)]
 Deg. of freedom    36
 Full point group                 C1      NOp   1
 RotChk:  IX=0 Diff= 1.14D-02
 Largest Abelian subgroup         C1      NOp   1
 Largest concise Abelian subgroup C1      NOp   1
                         Standard orientation:                         
 ---------------------------------------------------------------------
 Center     Atomic      Atomic             Coordinates (Angstroms)
 Number     Number       Type             X           Y           Z
 ---------------------------------------------------------------------
      1          8           0        2.302738   -0.289517   -0.108186
      2          6           0        0.981202   -0.774622   -0.120780
      3          6           0        0.047298    0.221712    0.546763
      4          8           0        0.107613    1.453564   -0.148122
      5          6           0       -1.386746   -0.251102    0.640551
      6          8           0       -1.853336   -0.360363   -0.691808
      7          1           0        2.259424    0.617231   -0.386019
      8          1           0        0.990014   -1.712840    0.417963
      9          1           0        0.648034   -0.964534   -1.134692
     10          1           0        0.418879    0.429908    1.539680
     11          1           0       -0.452533    1.376643   -0.912072
     12          1           0       -1.968759    0.477704    1.194991
     13          1           0       -1.439382   -1.207068    1.152296
     14          1           0       -2.762321   -0.622448   -0.686428
 ---------------------------------------------------------------------
 Rotational constants (GHZ):      6.3871654      2.2959733      2.0262536
 Leave Link  202 at Wed Sep 20 14:31:44 2023, MaxMem=    33554432 cpu:         0.0
 (Enter /mnt/storage/apps/eb/software/gaussian/09/l301.exe)
 Standard basis: 6-31G(d) (6D, 7F)
 Ernie: Thresh=  0.10000D-02 Tol=  0.10000D-05 Strict=F.
 There are   106 symmetry adapted cartesian basis functions of A   symmetry.
 There are   106 symmetry adapted basis functions of A   symmetry.
   106 basis functions,   200 primitive gaussians,   106 cartesian basis functions
    25 alpha electrons       25 beta electrons
       nuclear repulsion energy       266.8344482949 Hartrees.
 IExCor=    0 DFT=F Ex=HF Corr=None ExCW=0 ScaHFX=  1.000000
 ScaDFX=  1.000000  1.000000  1.000000  1.000000 ScalE2=  1.000000  1.000000
 IRadAn=      0 IRanWt=     -1 IRanGd=            0 ICorTp=0 IEmpDi=  4
 NAtoms=   14 NActive=   14 NUniq=   14 SFac= 1.00D+00 NAtFMM=   60 NAOKFM=F Big=F
 Integral buffers will be    131072 words long.
 Raffenetti 1 integral format.
 Two-electron integral symmetry is turned on.
 Leave Link  301 at Wed Sep 20 14:31:44 2023, MaxMem=    33554432 cpu:         0.0
 (Enter /mnt/storage/apps/eb/software/gaussian/09/l302.exe)
 NPDir=0 NMtPBC=     1 NCelOv=     1 NCel=       1 NClECP=     1 NCelD=      1
         NCelK=      1 NCelE2=     1 NClLst=     1 CellRange=     0.0.
 One-electron integrals computed using PRISM.
 NBasis=   106 RedAO= T EigKep=  3.37D-03  NBF=   106
 NBsUse=   106 1.00D-06 EigRej= -1.00D+00 NBFU=   106
 Leave Link  302 at Wed Sep 20 14:31:44 2023, MaxMem=    33554432 cpu:         0.1
 (Enter /mnt/storage/apps/eb/software/gaussian/09/l303.exe)
 DipDrv:  MaxL=1.
 Leave Link  303 at Wed Sep 20 14:31:45 2023, MaxMem=    33554432 cpu:         0.0
 (Enter /mnt/storage/apps/eb/software/gaussian/09/l401.exe)
 Initial guess from the checkpoint file:  "/scratch/nca121/18446470/Gau-2446.chk"
 B after Tr=     0.000000    0.000000    0.000000
         Rot=    0.999990    0.000457    0.002208   -0.003888 Ang=   0.52 deg.
 Guess basis will be translated and rotated to current coordinates.
 JPrj=2 DoOrth=T DoCkMO=T.
 Generating alternative initial guess.
 ExpMin= 1.61D-01 ExpMax= 5.48D+03 ExpMxC= 8.25D+02 IAcc=1 IRadAn=         1 AccDes= 0.00D+00
 Harris functional with IExCor=  205 and IRadAn=       1 diagonalized for initial guess.
 HarFok:  IExCor=  205 AccDes= 0.00D+00 IRadAn=         1 IDoV= 1 UseB2=F ITyADJ=14
 ICtDFT=  3500011 ScaDFX=  1.000000  1.000000  1.000000  1.000000
 FoFCou: FMM=F IPFlag=           0 FMFlag=      100000 FMFlg1=           0
         NFxFlg=           0 DoJE=T BraDBF=F KetDBF=T FulRan=T
         wScrn=  0.000000 ICntrl=     500 IOpCl=  0 I1Cent=   200000004 NGrid=           0
         NMat0=    1 NMatS0=      1 NMatT0=    0 NMatD0=    1 NMtDS0=    0 NMtDT0=    0
 Petite list used in FoFCou.
 Harris En= -343.200503607776    
 Leave Link  401 at Wed Sep 20 14:31:45 2023, MaxMem=    33554432 cpu:         0.3
 (Enter /mnt/storage/apps/eb/software/gaussian/09/l508.exe)
 Direct SCF.
 Tight linear equation convergence will be used.
 RHF wavefunction.
 Quadratic Convergence SCF Method.
 Line search only if initial step raises energy.
 Integral symmetry usage will be decided dynamically.
 ReadGW:  IGet=1 IStart=         402 Next=         402 LGW=           0.
 Keep R1 ints in memory in canonical form, NReq=17057369.
 FoFCou: FMM=F IPFlag=           0 FMFlag=           0 FMFlg1=           0
         NFxFlg=           0 DoJE=F BraDBF=F KetDBF=F FulRan=T
         wScrn=  0.000000 ICntrl=     600 IOpCl=  0 I1Cent=           0 NGrid=           0
         NMat0=    1 NMatS0=   5671 NMatT0=    0 NMatD0=    1 NMtDS0=    0 NMtDT0=    0
 Symmetry not used in FoFCou.
 Iteration   1 EE= -342.809528219109                                    Grad=8.114D-02 Max rot=    0.3888 deg.
 Gradient too large for Newton-Raphson -- use scaled steepest descent instead.
 Alpha Gap=     1.797 HL deriv= 1.23D-03
     ILin= 1 X=0.000D+00 Y=-3.428095282191D+02 DE= 0.00D+00 F= -5.43D-03
     ILin= 2 X=3.000D-01 Y=-3.428109578713D+02 DE=-1.43D-03 F= -4.10D-03
     ILin= 3 X=6.000D-01 Y=-3.428119901788D+02 DE=-2.46D-03 F= -2.78D-03
     ILin= 4 X=1.200D+00 Y=-3.428128631477D+02 DE=-3.33D-03 F= -1.31D-04
     Reject lnstep minimum 1.520D+00 FVal=-3.428129183393D+02 Lims=  6.00D-01  1.20D+00
     ILin= 5 X=2.400D+00 Y=-3.428098457281D+02 DE=-3.18D-04 F=  5.16D-03
     An  expanding polynomial of degree  5 produced  1.2298
     Minimum is close to point  4 DX=  2.98D-02 DF= -1.95D-06 DXR=  2.42D-02 DFR=  5.85D-04 which will be used.
 Iteration   2 EE= -342.812863147694     Delta-E=       -0.003334928585 Grad=4.082D-02 Max rot=    0.1751 deg.
 Gradient too large for Newton-Raphson -- use scaled steepest descent instead.
 Alpha Gap=     1.796 HL deriv= 8.11D-05
     ILin= 1 X=0.000D+00 Y=-3.428128631477D+02 DE= 0.00D+00 F= -1.36D-03
     ILin= 2 X=6.000D-01 Y=-3.428134180610D+02 DE=-5.55D-04 F= -4.85D-04
     ILin= 3 X=1.200D+00 Y=-3.428134450182D+02 DE=-5.82D-04 F=  3.95D-04
     Accept linear search using points  2 and  3.
     An  expanding polynomial of degree  3 produced  0.9123
 Iteration   3 EE= -342.813497986339     Delta-E=       -0.000634838645 Grad=2.288D-02 Max rot=    0.1071 deg.
 Gradient too large for Newton-Raphson -- use scaled steepest descent instead.
 Alpha Gap=     1.796 HL deriv= 6.27D-04
     ILin= 1 X=0.000D+00 Y=-3.428134979863D+02 DE= 0.00D+00 F= -4.46D-04
     ILin= 2 X=1.100D+00 Y=-3.428137103358D+02 DE=-2.12D-04 F=  6.04D-05
     Accept linear search using points  1 and  2.
     An  expanding polynomial of degree  2 produced  0.9919
 Iteration   4 EE= -342.813714171307     Delta-E=       -0.000216184967 Grad=1.773D-02 Max rot=    0.0943 deg.
 Gradient too large for Newton-Raphson -- use scaled steepest descent instead.
 Alpha Gap=     1.796 HL deriv= 2.23D-06
     ILin= 1 X=0.000D+00 Y=-3.428137141713D+02 DE= 0.00D+00 F= -2.59D-04
     ILin= 2 X=1.000D+00 Y=-3.428138093218D+02 DE=-9.52D-05 F=  6.88D-05
     Accept linear search using points  1 and  2.
     An  expanding polynomial of degree  2 produced  0.7902
 Iteration   5 EE= -342.813816533723     Delta-E=       -0.000102362416 Grad=1.121D-02 Max rot=    0.0536 deg.
 Gradient too large for Newton-Raphson -- use scaled steepest descent instead.
 Alpha Gap=     1.796 HL deriv= 3.33D-04
     ILin= 1 X=0.000D+00 Y=-3.428138165337D+02 DE= 0.00D+00 F= -1.09D-04
     ILin= 2 X=9.000D-01 Y=-3.428138694993D+02 DE=-5.30D-05 F= -8.63D-06
     Reject lnstep minimum 1.023D+00 FVal=-3.428138700756D+02 Lims=  0.00D+00  9.00D-01
     ILin= 3 X=1.800D+00 Y=-3.428138320716D+02 DE=-1.55D-05 F=  9.18D-05
     An  expanding polynomial of degree  3 produced  0.9774
     Minimum is close to point  2 DX=  7.74D-02 DF= -3.34D-07 DXR=  7.91D-02 DFR=  6.30D-03 which will be used.
 Iteration   6 EE= -342.813869499334     Delta-E=       -0.000052965611 Grad=8.843D-03 Max rot=    0.0500 deg.
 QCNR:  CnvC1=6.36D-09 CnvC2=6.36D-08
 LinEq1:  Iter=  0 NonCon=     1 RMS=1.10D-04 Max=1.24D-03 NDo=     1
 AX will form     1 AO Fock derivatives at one time.
 LinEq1:  Iter=  1 NonCon=     1 RMS=1.16D-05 Max=8.04D-05 NDo=     1
 LinEq1:  Iter=  2 NonCon=     1 RMS=3.39D-06 Max=2.32D-05 NDo=     1
 LinEq1:  Iter=  3 NonCon=     1 RMS=1.21D-06 Max=7.95D-06 NDo=     1
 LinEq1:  Iter=  4 NonCon=     1 RMS=2.78D-07 Max=1.55D-06 NDo=     1
 LinEq1:  Iter=  5 NonCon=     1 RMS=8.50D-08 Max=5.75D-07 NDo=     1
 LinEq1:  Iter=  6 NonCon=     1 RMS=2.06D-08 Max=1.39D-07 NDo=     1
 LinEq1:  Iter=  7 NonCon=     0 RMS=4.43D-09 Max=3.44D-08 NDo=     1
 Linear equations converged to 6.364D-09 6.364D-08 after     7 iterations.
 Angle between quadratic step and gradient=  41.16 degrees.
     ILin= 1 X=0.000D+00 Y=-3.428138694993D+02 DE= 0.00D+00 F= -1.54D-04
     ILin= 2 X=1.000D+00 Y=-3.428139467328D+02 DE=-7.72D-05 F=  3.71D-09
     Accept linear search using points  1 and  2.
     An  expanding polynomial of degree  2 produced  1.0000
     Minimum is close to point  2 DX= -2.40D-05 DF= -5.68D-14 DXR=  2.40D-05 DFR=  7.36D-10 which will be used.
 Iteration   7 EE= -342.813946732775     Delta-E=       -0.000077233441 Grad=1.821D-05 Max rot=    0.0001 deg.
 QCNR:  CnvC1=1.82D-10 CnvC2=1.82D-09
 LinEq1:  Iter=  0 NonCon=     1 RMS=1.74D-07 Max=1.20D-06 NDo=     1
 LinEq1:  Iter=  1 NonCon=     1 RMS=5.27D-08 Max=3.47D-07 NDo=     1
 LinEq1:  Iter=  2 NonCon=     1 RMS=1.45D-08 Max=9.70D-08 NDo=     1
 LinEq1:  Iter=  3 NonCon=     1 RMS=4.18D-09 Max=3.51D-08 NDo=     1
 LinEq1:  Iter=  4 NonCon=     1 RMS=1.01D-09 Max=8.50D-09 NDo=     1
 LinEq1:  Iter=  5 NonCon=     1 RMS=2.54D-10 Max=1.54D-09 NDo=     1
 LinEq1:  Iter=  6 NonCon=     0 RMS=9.26D-11 Max=6.12D-10 NDo=     1
 Linear equations converged to 1.821D-10 1.821D-09 after     6 iterations.
 Angle between quadratic step and gradient=  31.04 degrees.
     ILin= 1 X=0.000D+00 Y=-3.428139467328D+02 DE= 0.00D+00 F= -2.75D-10
     ILin= 2 X=1.000D+00 Y=-3.428139467329D+02 DE=-1.35D-10
 Iteration   8 EE= -342.813946732910     Delta-E=       -0.000000000135 Grad=9.518D-09 Max rot=    0.0000 deg.
 Rotation gradient small -- convergence achieved.
 SCF Done:  E(RHF) =  -342.813946733     a.u. after    8 cycles
            Convg  =    0.9518D-08                    29 Fock formations.
              S**2 =  0.0000                  -V/T =  2.0016
 Leave Link  508 at Wed Sep 20 14:31:46 2023, MaxMem=    33554432 cpu:         1.4
 (Enter /mnt/storage/apps/eb/software/gaussian/09/l701.exe)
 Compute integral first derivatives.
 ... and contract with generalized density number  0.
 Leave Link  701 at Wed Sep 20 14:31:46 2023, MaxMem=    33554432 cpu:         0.1
 (Enter /mnt/storage/apps/eb/software/gaussian/09/l702.exe)
 L702 exits ... SP integral derivatives will be done elsewhere.
 Leave Link  702 at Wed Sep 20 14:31:46 2023, MaxMem=    33554432 cpu:         0.0
 (Enter /mnt/storage/apps/eb/software/gaussian/09/l703.exe)
 Compute integral first derivatives, UseDBF=F ICtDFT=           0.
 Integral derivatives from FoFJK, PRISM(SPDF).
 Calling FoFJK, ICntrl=      2127 FMM=F ISym2X=0 I1Cent= 0 IOpClX= 0 NMat=1 NMatS=1 NMatT=0.
 FoFJK:  IHMeth= 1 ICntrl=    2127 DoSepK=F KAlg= 0 I1Cent=   0 FoldK=F
 IRaf=         0 NMat=   1 IRICut=       1 DoRegI=T DoRafI=F ISym2E= 0.
 FoFCou: FMM=F IPFlag=           0 FMFlag=      100000 FMFlg1=         800
         NFxFlg=           0 DoJE=F BraDBF=F KetDBF=F FulRan=T
         wScrn=  0.000000 ICntrl=    2127 IOpCl=  0 I1Cent=           0 NGrid=           0
         NMat0=    1 NMatS0=      1 NMatT0=    0 NMatD0=    1 NMtDS0=    0 NMtDT0=    0
 Symmetry not used in FoFCou.
 Leave Link  703 at Wed Sep 20 14:31:48 2023, MaxMem=    33554432 cpu:         1.5
 (Enter /mnt/storage/apps/eb/software/gaussian/09/l716.exe)
 Dipole        =-1.53976688D+00-3.04886596D-01 1.87500999D-01
 ***** Axes restored to original set *****
 -------------------------------------------------------------------
 Center     Atomic                   Forces (Hartrees/Bohr)
 Number     Number              X              Y              Z
 -------------------------------------------------------------------
      1        8          -0.007749671   -0.001976225    0.000910291
      2        6           0.007647584    0.001923484    0.000430671
      3        6           0.000904271    0.006906902    0.002638857
      4        8           0.000382107   -0.004822766   -0.000677990
      5        6          -0.001484266    0.003683918   -0.006465771
      6        8           0.000426441   -0.004609373    0.005560861
      7        1           0.001715635    0.001167087   -0.000846391
      8        1          -0.000426560   -0.001200813   -0.000319339
      9        1          -0.000457508   -0.000159816   -0.001481599
     10        1           0.001522087   -0.001479503    0.001427411
     11        1           0.000461575    0.000768595   -0.000001963
     12        1          -0.000905214   -0.000228160   -0.000098006
     13        1          -0.000356287   -0.000811615    0.000007220
     14        1          -0.001680193    0.000838284   -0.001084252
 -------------------------------------------------------------------
 Cartesian Forces:  Max     0.007749671 RMS     0.002842443
 Leave Link  716 at Wed Sep 20 14:31:48 2023, MaxMem=    33554432 cpu:         0.0
 (Enter /mnt/storage/apps/eb/software/gaussian/09/l103.exe)

 GradGradGradGradGradGradGradGradGradGradGradGradGradGradGradGradGradGrad
 Berny optimization.
 Using GEDIIS/GDIIS optimizer.
 FormGI is forming the generalized inverse of G from B-inverse, IUseBI=4.
 Internal  Forces:  Max     0.005750214 RMS     0.001683226
 Search for a local minimum.
 Step number   2 out of a maximum of  100
 All quantities printed in internal units (Hartrees-Bohrs-Radians)
 RMS Force = .16832D-02 SwitMx=.10000D-02 MixMth= 1
 Mixed Optimization -- RFO/linear search
 Update second derivatives using D2CorX and points    1    2
 DE= -6.56D-03 DEPred=-6.98D-03 R= 9.40D-01
 TightC=F SS=  1.41D+00  RLast= 2.88D-01 DXNew= 5.0454D-01 8.6518D-01
 Trust test= 9.40D-01 RLast= 2.88D-01 DXMaxT set to 5.05D-01
 ITU=  1  0
 Use linear search instead of GDIIS.
     Eigenvalues ---    0.00361   0.00390   0.01173   0.01303   0.01309
     Eigenvalues ---    0.04040   0.04771   0.05148   0.05566   0.05754
     Eigenvalues ---    0.05940   0.07641   0.11111   0.11455   0.13467
     Eigenvalues ---    0.13957   0.15236   0.16000   0.16066   0.17231
     Eigenvalues ---    0.19929   0.22017   0.23553   0.29372   0.30255
     Eigenvalues ---    0.34214   0.34272   0.34327   0.34363   0.35313
     Eigenvalues ---    0.36989   0.40368   0.41143   0.51487   0.51943
     Eigenvalues ---    0.53558
 RFO step:  Lambda=-1.00904121D-03 EMin= 3.61460786D-03
 Quartic linear search produced a step of  0.00221.
 Iteration  1 RMS(Cart)=  0.04525037 RMS(Int)=  0.00097813
 Iteration  2 RMS(Cart)=  0.00131306 RMS(Int)=  0.00003027
 Iteration  3 RMS(Cart)=  0.00000066 RMS(Int)=  0.00003027
 ITry= 1 IFail=0 DXMaxC= 1.24D-01 DCOld= 1.00D+10 DXMaxT= 5.05D-01 DXLimC= 3.00D+00 Rises=F
 Variable       Old X    -DE/DX   Delta X   Delta X   Delta X     New X
                                 (Linear)    (Quad)   (Total)
    R1        2.66038  -0.00561  -0.00009  -0.01547  -0.01556   2.64482
    R2        1.79401   0.00043  -0.00012  -0.00168  -0.00180   1.79221
    R3        2.87243   0.00151  -0.00005   0.00419   0.00415   2.87657
    R4        2.04455   0.00109  -0.00005   0.00212   0.00207   2.04662
    R5        2.04849   0.00139  -0.00004   0.00311   0.00307   2.05156
    R6        2.67512  -0.00418  -0.00010  -0.01256  -0.01265   2.66247
    R7        2.85895   0.00391  -0.00006   0.01183   0.01177   2.87071
    R8        2.04169   0.00234  -0.00006   0.00552   0.00546   2.04715
    R9        1.79603  -0.00020  -0.00012  -0.00293  -0.00305   1.79299
   R10        2.67570  -0.00392  -0.00005  -0.01063  -0.01068   2.66501
   R11        2.05042   0.00027  -0.00004  -0.00004  -0.00008   2.05034
   R12        2.05148   0.00073  -0.00004   0.00138   0.00134   2.05283
   R13        1.78774   0.00108  -0.00012  -0.00042  -0.00054   1.78720
    A1        1.85842   0.00358   0.00005   0.02323   0.02328   1.88169
    A2        1.92512  -0.00037   0.00004   0.00022   0.00026   1.92538
    A3        1.86159   0.00096  -0.00006   0.00832   0.00826   1.86985
    A4        1.93611  -0.00052   0.00015  -0.00192  -0.00178   1.93434
    A5        1.93342  -0.00055  -0.00003  -0.00371  -0.00374   1.92968
    A6        1.91428   0.00091  -0.00007   0.00309   0.00301   1.91729
    A7        1.89265  -0.00045  -0.00002  -0.00610  -0.00612   1.88653
    A8        1.90565  -0.00006   0.00006   0.00240   0.00245   1.90810
    A9        1.98751  -0.00006   0.00005   0.00039   0.00042   1.98793
   A10        1.89505  -0.00034  -0.00005  -0.00789  -0.00794   1.88711
   A11        1.92066   0.00030   0.00004   0.00493   0.00495   1.92562
   A12        1.84292   0.00019  -0.00005   0.00324   0.00319   1.84611
   A13        1.90631  -0.00002  -0.00005  -0.00303  -0.00310   1.90321
   A14        1.87447   0.00136   0.00010   0.01049   0.01059   1.88506
   A15        1.85265   0.00575  -0.00012   0.02588   0.02571   1.87837
   A16        1.90732  -0.00079  -0.00003  -0.00299  -0.00297   1.90434
   A17        1.92878  -0.00078  -0.00004   0.00065   0.00054   1.92932
   A18        1.93468  -0.00247   0.00014  -0.01230  -0.01219   1.92249
   A19        1.93868  -0.00185   0.00007  -0.00304  -0.00312   1.93557
   A20        1.90138   0.00020  -0.00002  -0.00761  -0.00768   1.89371
   A21        1.90991   0.00321   0.00010   0.02204   0.02214   1.93206
    D1       -0.80402  -0.00081  -0.00011  -0.03969  -0.03979  -0.84381
    D2       -2.90479  -0.00051  -0.00006  -0.04036  -0.04043  -2.94522
    D3        1.32059  -0.00026  -0.00008  -0.03693  -0.03700   1.28359
    D4        1.03860  -0.00071  -0.00007  -0.07512  -0.07520   0.96340
    D5       -3.09033  -0.00041   0.00005  -0.06660  -0.06655   3.12630
    D6       -0.96254  -0.00072  -0.00001  -0.07599  -0.07599  -1.03854
    D7        3.09565  -0.00010  -0.00014  -0.06700  -0.06714   3.02850
    D8       -1.03329   0.00020  -0.00002  -0.05848  -0.05850  -1.09179
    D9        1.09450  -0.00012  -0.00008  -0.06787  -0.06794   1.02656
   D10       -1.09889  -0.00042  -0.00024  -0.07491  -0.07515  -1.17405
   D11        1.05536  -0.00012  -0.00012  -0.06639  -0.06651   0.98885
   D12       -3.10004  -0.00043  -0.00018  -0.07578  -0.07595   3.10720
   D13        1.41234  -0.00011   0.00004  -0.01586  -0.01582   1.39652
   D14       -0.78107  -0.00020  -0.00009  -0.02143  -0.02153  -0.80260
   D15       -2.83628  -0.00043  -0.00002  -0.02217  -0.02220  -2.85848
   D16       -1.13102  -0.00060  -0.00004  -0.03119  -0.03126  -1.16227
   D17        3.06487  -0.00051  -0.00012  -0.02970  -0.02982   3.03505
   D18        0.97274   0.00022  -0.00005  -0.01882  -0.01884   0.95391
   D19        1.01506  -0.00050   0.00009  -0.02399  -0.02392   0.99114
   D20       -1.07224  -0.00041   0.00001  -0.02250  -0.02249  -1.09473
   D21        3.11882   0.00033   0.00008  -0.01163  -0.01150   3.10732
   D22        3.03061  -0.00011   0.00002  -0.01907  -0.01908   3.01153
   D23        0.94331  -0.00002  -0.00006  -0.01758  -0.01764   0.92567
   D24       -1.14881   0.00071   0.00001  -0.00670  -0.00666  -1.15547
   D25       -3.10342   0.00045   0.00002   0.02581   0.02589  -3.07753
   D26       -1.03410   0.00158  -0.00001   0.03094   0.03084  -1.00326
   D27        1.08243  -0.00111   0.00010   0.01083   0.01096   1.09339
         Item               Value     Threshold  Converged?
 Maximum Force            0.005750     0.000015     NO 
 RMS     Force            0.001683     0.000010     NO 
 Maximum Displacement     0.123649     0.000060     NO 
 RMS     Displacement     0.045131     0.000040     NO 
 Predicted change in Energy=-5.350116D-04
 Lowest energy point so far.  Saving SCF results.
 GradGradGradGradGradGradGradGradGradGradGradGradGradGradGradGradGradGrad

 Leave Link  103 at Wed Sep 20 14:31:48 2023, MaxMem=    33554432 cpu:         0.0
 (Enter /mnt/storage/apps/eb/software/gaussian/09/l202.exe)
                          Input orientation:                          
 ---------------------------------------------------------------------
 Center     Atomic      Atomic             Coordinates (Angstroms)
 Number     Number       Type             X           Y           Z
 ---------------------------------------------------------------------
      1          8           0        2.283943    0.594596   -0.693885
      2          6           0        1.111205   -0.168600   -0.726192
      3          6           0        0.284157    0.079974    0.527342
      4          8           0        0.037804    1.461102    0.657143
      5          6           0       -1.021780   -0.695065    0.566776
      6          8           0       -1.847465   -0.192890   -0.460312
      7          1           0        2.045198    1.483882   -0.466674
      8          1           0        1.408653   -1.208278   -0.785696
      9          1           0        0.522939    0.064744   -1.608293
     10          1           0        0.884045   -0.194214    1.386706
     11          1           0       -0.679037    1.686856    0.077996
     12          1           0       -1.494007   -0.546496    1.532248
     13          1           0       -0.838782   -1.757380    0.432366
     14          1           0       -2.696871   -0.608233   -0.439525
 ---------------------------------------------------------------------
                    Distance matrix (angstroms):
                    1          2          3          4          5
     1  O    0.000000
     2  C    1.399581   0.000000
     3  C    2.399036   1.522217   0.000000
     4  O    2.760661   2.392014   1.408918   0.000000
     5  C    3.765673   2.549226   1.519116   2.404150   0.000000
     6  O    4.212270   2.970692   2.365106   2.745657   1.410265
     7  H    0.948395   1.915827   2.461766   2.300678   3.901562
     8  H    2.006220   1.083027   2.155958   3.329655   2.828352
     9  H    2.053782   1.085637   2.148996   2.705064   2.773876
    10  H    2.628839   2.125228   1.083305   1.997112   2.134316
    11  H    3.250859   2.700815   1.926584   0.948808   2.455591
    12  H    4.531077   3.468499   2.136392   2.672583   1.084992
    13  H    4.068371   2.769283   2.155432   3.343285   1.086310
    14  H    5.130303   3.844073   3.208581   3.600455   1.956046
                    6          7          8          9         10
     6  O    0.000000
     7  H    4.238447   0.000000
     8  H    3.426251   2.784725   0.000000
     9  H    2.646328   2.373715   1.755488   0.000000
    10  H    3.297366   2.756683   2.454154   3.027783   0.000000
    11  H    2.277816   2.785556   3.672359   2.630507   2.773873
    12  H    2.054328   4.543578   3.773097   3.782153   2.408406
    13  H    2.064448   4.430733   2.614604   3.055930   2.514436
    14  H    0.945745   5.183137   4.163559   3.490859   4.040977
                   11         12         13         14
    11  H    0.000000
    12  H    2.786913   0.000000
    13  H    3.466102   1.762186   0.000000
    14  H    3.099503   2.310537   2.352282   0.000000
 Stoichiometry    C3H8O3
 Framework group  C1[X(C3H8O3)]
 Deg. of freedom    36
 Full point group                 C1      NOp   1
 RotChk:  IX=0 Diff= 1.17D-02
 Largest Abelian subgroup         C1      NOp   1
 Largest concise Abelian subgroup C1      NOp   1
                         Standard orientation:                         
 ---------------------------------------------------------------------
 Center     Atomic      Atomic             Coordinates (Angstroms)
 Number     Number       Type             X           Y           Z
 ---------------------------------------------------------------------
      1          8           0        2.294714   -0.275438   -0.136209
      2          6           0        0.993261   -0.788965   -0.099672
      3          6           0        0.049748    0.208546    0.557519
      4          8           0        0.134688    1.443600   -0.115145
      5          6           0       -1.394017   -0.259675    0.620961
      6          8           0       -1.879122   -0.328241   -0.701468
      7          1           0        2.248198    0.609044   -0.475297
      8          1           0        1.029480   -1.709907    0.469099
      9          1           0        0.642802   -1.024070   -1.099928
     10          1           0        0.405096    0.396079    1.563555
     11          1           0       -0.392592    1.385970   -0.901842
     12          1           0       -1.974272    0.454876    1.195355
     13          1           0       -1.459559   -1.228225    1.108489
     14          1           0       -2.795342   -0.562565   -0.709701
 ---------------------------------------------------------------------
 Rotational constants (GHZ):      6.4378632      2.2772476      2.0166423
 Leave Link  202 at Wed Sep 20 14:31:48 2023, MaxMem=    33554432 cpu:         0.0
 (Enter /mnt/storage/apps/eb/software/gaussian/09/l301.exe)
 Standard basis: 6-31G(d) (6D, 7F)
 Ernie: Thresh=  0.10000D-02 Tol=  0.10000D-05 Strict=F.
 There are   106 symmetry adapted cartesian basis functions of A   symmetry.
 There are   106 symmetry adapted basis functions of A   symmetry.
   106 basis functions,   200 primitive gaussians,   106 cartesian basis functions
    25 alpha electrons       25 beta electrons
       nuclear repulsion energy       266.6594031531 Hartrees.
 IExCor=    0 DFT=F Ex=HF Corr=None ExCW=0 ScaHFX=  1.000000
 ScaDFX=  1.000000  1.000000  1.000000  1.000000 ScalE2=  1.000000  1.000000
 IRadAn=      0 IRanWt=     -1 IRanGd=            0 ICorTp=0 IEmpDi=  4
 NAtoms=   14 NActive=   14 NUniq=   14 SFac= 1.00D+00 NAtFMM=   60 NAOKFM=F Big=F
 Integral buffers will be    131072 words long.
 Raffenetti 1 integral format.
 Two-electron integral symmetry is turned on.
 Leave Link  301 at Wed Sep 20 14:31:48 2023, MaxMem=    33554432 cpu:         0.0
 (Enter /mnt/storage/apps/eb/software/gaussian/09/l302.exe)
 NPDir=0 NMtPBC=     1 NCelOv=     1 NCel=       1 NClECP=     1 NCelD=      1
         NCelK=      1 NCelE2=     1 NClLst=     1 CellRange=     0.0.
 One-electron integrals computed using PRISM.
 NBasis=   106 RedAO= T EigKep=  3.37D-03  NBF=   106
 NBsUse=   106 1.00D-06 EigRej= -1.00D+00 NBFU=   106
 Leave Link  302 at Wed Sep 20 14:31:48 2023, MaxMem=    33554432 cpu:         0.1
 (Enter /mnt/storage/apps/eb/software/gaussian/09/l303.exe)
 DipDrv:  MaxL=1.
 Leave Link  303 at Wed Sep 20 14:31:48 2023, MaxMem=    33554432 cpu:         0.0
 (Enter /mnt/storage/apps/eb/software/gaussian/09/l401.exe)
 Initial guess from the checkpoint file:  "/scratch/nca121/18446470/Gau-2446.chk"
 B after Tr=     0.000000    0.000000    0.000000
         Rot=    0.999971   -0.006963   -0.000335    0.002942 Ang=  -0.87 deg.
 Guess basis will be translated and rotated to current coordinates.
 JPrj=2 DoOrth=T DoCkMO=T.
 Generating alternative initial guess.
 ExpMin= 1.61D-01 ExpMax= 5.48D+03 ExpMxC= 8.25D+02 IAcc=1 IRadAn=         1 AccDes= 0.00D+00
 Harris functional with IExCor=  205 and IRadAn=       1 diagonalized for initial guess.
 HarFok:  IExCor=  205 AccDes= 0.00D+00 IRadAn=         1 IDoV= 1 UseB2=F ITyADJ=14
 ICtDFT=  3500011 ScaDFX=  1.000000  1.000000  1.000000  1.000000
 FoFCou: FMM=F IPFlag=           0 FMFlag=      100000 FMFlg1=           0
         NFxFlg=           0 DoJE=T BraDBF=F KetDBF=T FulRan=T
         wScrn=  0.000000 ICntrl=     500 IOpCl=  0 I1Cent=   200000004 NGrid=           0
         NMat0=    1 NMatS0=      1 NMatT0=    0 NMatD0=    1 NMtDS0=    0 NMtDT0=    0
 Petite list used in FoFCou.
 Harris En= -343.201201617601    
 Leave Link  401 at Wed Sep 20 14:31:48 2023, MaxMem=    33554432 cpu:         0.3
 (Enter /mnt/storage/apps/eb/software/gaussian/09/l508.exe)
 Direct SCF.
 Tight linear equation convergence will be used.
 RHF wavefunction.
 Quadratic Convergence SCF Method.
 Line search only if initial step raises energy.
 Integral symmetry usage will be decided dynamically.
 ReadGW:  IGet=1 IStart=         402 Next=         402 LGW=           0.
 Keep R1 ints in memory in canonical form, NReq=17057224.
 FoFCou: FMM=F IPFlag=           0 FMFlag=           0 FMFlg1=           0
         NFxFlg=           0 DoJE=F BraDBF=F KetDBF=F FulRan=T
         wScrn=  0.000000 ICntrl=     600 IOpCl=  0 I1Cent=           0 NGrid=           0
         NMat0=    1 NMatS0=   5671 NMatT0=    0 NMatD0=    1 NMtDS0=    0 NMtDT0=    0
 Symmetry not used in FoFCou.
 Iteration   1 EE= -342.811084500707                                    Grad=6.287D-02 Max rot=    0.3561 deg.
 Gradient too large for Newton-Raphson -- use scaled steepest descent instead.
 Alpha Gap=     1.777 HL deriv= 3.47D-04
     ILin= 1 X=0.000D+00 Y=-3.428110845007D+02 DE= 0.00D+00 F= -3.37D-03
     ILin= 2 X=3.000D-01 Y=-3.428119914392D+02 DE=-9.07D-04 F= -2.68D-03
     ILin= 3 X=6.000D-01 Y=-3.428126923491D+02 DE=-1.61D-03 F= -1.99D-03
     ILin= 4 X=1.200D+00 Y=-3.428134760612D+02 DE=-2.39D-03 F= -6.19D-04
     ILin= 5 X=2.400D+00 Y=-3.428125711000D+02 DE=-1.49D-03 F=  2.13D-03
     An  expanding polynomial of degree  5 produced  1.4706
 Iteration   2 EE= -342.813559853344     Delta-E=       -0.002475352637 Grad=3.346D-02 Max rot=    0.1870 deg.
 Gradient too large for Newton-Raphson -- use scaled steepest descent instead.
 Alpha Gap=     1.777 HL deriv= 2.16D-08
     ILin= 1 X=0.000D+00 Y=-3.428135598533D+02 DE= 0.00D+00 F= -9.27D-04
     ILin= 2 X=7.000D-01 Y=-3.428139775415D+02 DE=-4.18D-04 F= -2.66D-04
     Reject lnstep minimum 1.112D+00 FVal=-3.428140897338D+02 Lims=  0.00D+00  7.00D-01
     ILin= 3 X=1.300D+00 Y=-3.428139675192D+02 DE=-4.08D-04 F=  3.00D-04
     An  expanding polynomial of degree  3 produced  0.9823
 Iteration   3 EE= -342.814015143982     Delta-E=       -0.000455290638 Grad=1.777D-02 Max rot=    0.0897 deg.
 Gradient too large for Newton-Raphson -- use scaled steepest descent instead.
 Alpha Gap=     1.777 HL deriv= 3.35D-05
     ILin= 1 X=0.000D+00 Y=-3.428140151440D+02 DE= 0.00D+00 F= -2.80D-04
     ILin= 2 X=1.200D+00 Y=-3.428141454700D+02 DE=-1.30D-04 F=  6.27D-05
     Accept linear search using points  1 and  2.
     An  expanding polynomial of degree  2 produced  1.0365
 Iteration   4 EE= -342.814151912477     Delta-E=       -0.000136768496 Grad=1.464D-02 Max rot=    0.0873 deg.
 Gradient too large for Newton-Raphson -- use scaled steepest descent instead.
 Alpha Gap=     1.777 HL deriv= 8.86D-05
     ILin= 1 X=0.000D+00 Y=-3.428141519125D+02 DE= 0.00D+00 F= -1.81D-04
     ILin= 2 X=1.000D+00 Y=-3.428142138633D+02 DE=-6.20D-05 F=  5.75D-05
     Accept linear search using points  1 and  2.
     An  expanding polynomial of degree  2 produced  0.7592
 Iteration   5 EE= -342.814220791390     Delta-E=       -0.000068878913 Grad=8.807D-03 Max rot=    0.0556 deg.
 QCNR:  CnvC1=6.36D-09 CnvC2=6.36D-08
 LinEq1:  Iter=  0 NonCon=     1 RMS=1.19D-04 Max=1.36D-03 NDo=     1
 AX will form     1 AO Fock derivatives at one time.
 LinEq1:  Iter=  1 NonCon=     1 RMS=1.18D-05 Max=8.77D-05 NDo=     1
 LinEq1:  Iter=  2 NonCon=     1 RMS=2.34D-06 Max=1.52D-05 NDo=     1
 LinEq1:  Iter=  3 NonCon=     1 RMS=8.31D-07 Max=4.96D-06 NDo=     1
 LinEq1:  Iter=  4 NonCon=     1 RMS=2.20D-07 Max=1.53D-06 NDo=     1
 LinEq1:  Iter=  5 NonCon=     1 RMS=6.12D-08 Max=4.23D-07 NDo=     1
 LinEq1:  Iter=  6 NonCon=     1 RMS=1.68D-08 Max=1.20D-07 NDo=     1
 LinEq1:  Iter=  7 NonCon=     0 RMS=4.09D-09 Max=2.84D-08 NDo=     1
 Linear equations converged to 6.364D-09 6.364D-08 after     7 iterations.
 Angle between quadratic step and gradient=  35.94 degrees.
     ILin= 1 X=0.000D+00 Y=-3.428142207914D+02 DE= 0.00D+00 F= -1.77D-04
     ILin= 2 X=1.000D+00 Y=-3.428143090429D+02 DE=-8.83D-05 F=  1.90D-08
     Accept linear search using points  1 and  2.
     An  expanding polynomial of degree  2 produced  0.9999
     Minimum is close to point  2 DX= -1.08D-04 DF= -1.02D-12 DXR=  1.08D-04 DFR=  1.16D-08 which will be used.
 Iteration   6 EE= -342.814309042866     Delta-E=       -0.000088251476 Grad=1.857D-05 Max rot=    0.0001 deg.
 QCNR:  CnvC1=1.86D-10 CnvC2=1.86D-09
 LinEq1:  Iter=  0 NonCon=     1 RMS=1.86D-07 Max=1.81D-06 NDo=     1
 LinEq1:  Iter=  1 NonCon=     1 RMS=6.02D-08 Max=4.10D-07 NDo=     1
 LinEq1:  Iter=  2 NonCon=     1 RMS=1.51D-08 Max=1.03D-07 NDo=     1
 LinEq1:  Iter=  3 NonCon=     1 RMS=4.54D-09 Max=3.10D-08 NDo=     1
 LinEq1:  Iter=  4 NonCon=     1 RMS=1.06D-09 Max=8.23D-09 NDo=     1
[...]
 --------------------------                            --------------------------
 ! Name  Definition              Value          Derivative Info.                !
 --------------------------------------------------------------------------------
 ! R1    R(1,2)                  1.3977         -DE/DX =    0.0                 !
 ! R2    R(1,7)                  0.9491         -DE/DX =    0.0                 !
 ! R3    R(2,3)                  1.5239         -DE/DX =    0.0                 !
 ! R4    R(2,8)                  1.0836         -DE/DX =    0.0                 !
 ! R5    R(2,9)                  1.0873         -DE/DX =    0.0                 !
 ! R6    R(3,4)                  1.4077         -DE/DX =    0.0                 !
 ! R7    R(3,5)                  1.5188         -DE/DX =    0.0                 !
 ! R8    R(3,10)                 1.0836         -DE/DX =    0.0                 !
 ! R9    R(4,11)                 0.9502         -DE/DX =    0.0                 !
 ! R10   R(5,6)                  1.4081         -DE/DX =    0.0                 !
 ! R11   R(5,12)                 1.086          -DE/DX =    0.0                 !
 ! R12   R(5,13)                 1.0872         -DE/DX =    0.0                 !
 ! R13   R(6,14)                 0.9465         -DE/DX =    0.0                 !
 ! A1    A(2,1,7)              107.619          -DE/DX =    0.0                 !
 ! A2    A(1,2,3)              110.4447         -DE/DX =    0.0                 !
 ! A3    A(1,2,8)              107.0327         -DE/DX =    0.0                 !
 ! A4    A(1,2,9)              111.1049         -DE/DX =    0.0                 !
 ! A5    A(3,2,8)              110.4435         -DE/DX =    0.0                 !
 ! A6    A(3,2,9)              109.7978         -DE/DX =    0.0                 !
 ! A7    A(8,2,9)              107.9544         -DE/DX =    0.0                 !
 ! A8    A(2,3,4)              109.4359         -DE/DX =    0.0                 !
 ! A9    A(2,3,5)              113.576          -DE/DX =    0.0                 !
 ! A10   A(2,3,10)             108.3101         -DE/DX =    0.0                 !
 ! A11   A(4,3,5)              110.1945         -DE/DX =    0.0                 !
 ! A12   A(4,3,10)             106.1416         -DE/DX =    0.0                 !
 ! A13   A(5,3,10)             108.8955         -DE/DX =    0.0                 !
 ! A14   A(3,4,11)             107.7837         -DE/DX =    0.0                 !
 ! A15   A(3,5,6)              107.3092         -DE/DX =    0.0                 !
 ! A16   A(3,5,12)             109.0839         -DE/DX =    0.0                 !
 ! A17   A(3,5,13)             110.398          -DE/DX =    0.0                 !
 ! A18   A(6,5,12)             110.5368         -DE/DX =    0.0                 !
 ! A19   A(6,5,13)             111.033          -DE/DX =    0.0                 !
 ! A20   A(12,5,13)            108.4659         -DE/DX =    0.0                 !
 ! A21   A(5,6,14)             110.2987         -DE/DX =    0.0                 !
 ! D1    D(7,1,2,3)            -48.2235         -DE/DX =    0.0                 !
 ! D2    D(7,1,2,8)           -168.493          -DE/DX =    0.0                 !
 ! D3    D(7,1,2,9)             73.8728         -DE/DX =    0.0                 !
 ! D4    D(1,2,3,4)             56.8306         -DE/DX =    0.0                 !
 ! D5    D(1,2,3,5)           -179.5694         -DE/DX =    0.0                 !
 ! D6    D(1,2,3,10)           -58.4658         -DE/DX =    0.0                 !
 ! D7    D(8,2,3,4)            175.0326         -DE/DX =    0.0                 !
 ! D8    D(8,2,3,5)            -61.3674         -DE/DX =    0.0                 !
 ! D9    D(8,2,3,10)            59.7362         -DE/DX =    0.0                 !
 ! D10   D(9,2,3,4)            -66.0314         -DE/DX =    0.0                 !
 ! D11   D(9,2,3,5)             57.5687         -DE/DX =    0.0                 !
 ! D12   D(9,2,3,10)           178.6722         -DE/DX =    0.0                 !
 ! D13   D(2,3,4,11)            80.9657         -DE/DX =    0.0                 !
 ! D14   D(5,3,4,11)           -44.6048         -DE/DX =    0.0                 !
 ! D15   D(10,3,4,11)         -162.3584         -DE/DX =    0.0                 !
 ! D16   D(2,3,5,6)            -66.5273         -DE/DX =    0.0                 !
 ! D17   D(2,3,5,12)           173.6949         -DE/DX =    0.0                 !
 ! D18   D(2,3,5,13)            54.6017         -DE/DX =    0.0                 !
 ! D19   D(4,3,5,6)             56.658          -DE/DX =    0.0                 !
 ! D20   D(4,3,5,12)           -63.1198         -DE/DX =    0.0                 !
 ! D21   D(4,3,5,13)           177.787          -DE/DX =    0.0                 !
 ! D22   D(10,3,5,6)           172.6978         -DE/DX =    0.0                 !
 ! D23   D(10,3,5,12)           52.92           -DE/DX =    0.0                 !
 ! D24   D(10,3,5,13)          -66.1732         -DE/DX =    0.0                 !
 ! D25   D(3,5,6,14)          -171.712          -DE/DX =    0.0                 !
 ! D26   D(12,5,6,14)          -52.8665         -DE/DX =    0.0                 !
 ! D27   D(13,5,6,14)           67.5598         -DE/DX =    0.0                 !
 --------------------------------------------------------------------------------
 Lowest energy point so far.  Saving SCF results.
 GradGradGradGradGradGradGradGradGradGradGradGradGradGradGradGradGradGrad

 Largest change from initial coordinates is atom   14       0.146 Angstoms.
 Leave Link  103 at Wed Sep 20 14:32:16 2023, MaxMem=    33554432 cpu:         0.0
 (Enter /mnt/storage/apps/eb/software/gaussian/09/l202.exe)
                          Input orientation:                          
 ---------------------------------------------------------------------
 Center     Atomic      Atomic             Coordinates (Angstroms)
 Number     Number       Type             X           Y           Z
 ---------------------------------------------------------------------
      1          8           0        2.293636    0.581178   -0.689235
      2          6           0        1.112270   -0.164769   -0.727821
      3          6           0        0.282828    0.086637    0.525560
      4          8           0        0.020488    1.464456    0.645065
      5          6           0       -1.016165   -0.699530    0.562186
      6          8           0       -1.834502   -0.204941   -0.471525
      7          1           0        2.063497    1.471874   -0.455610
      8          1           0        1.397657   -1.208252   -0.789808
      9          1           0        0.526230    0.075495   -1.611570
     10          1           0        0.880221   -0.182270    1.388729
     11          1           0       -0.710528    1.671270    0.074339
     12          1           0       -1.492086   -0.554165    1.527485
     13          1           0       -0.820544   -1.760964    0.431034
     14          1           0       -2.703003   -0.576019   -0.408827
 ---------------------------------------------------------------------
                    Distance matrix (angstroms):
                    1          2          3          4          5
     1  O    0.000000
     2  C    1.397695   0.000000
     3  C    2.400759   1.523858   0.000000
     4  O    2.779881   2.393988   1.407653   0.000000
     5  C    3.763117   2.545648   1.518810   2.400906   0.000000
     6  O    4.207957   2.958169   2.358449   2.733979   1.408138
     7  H    0.949149   1.912467   2.460154   2.320652   3.903232
     8  H    2.003734   1.083579   2.156333   3.331489   2.813045
     9  H    2.056731   1.087283   2.150975   2.697664   2.775764
    10  H    2.626504   2.129304   1.083628   2.000971   2.132372
    11  H    3.285779   2.708707   1.923907   0.950203   2.439693
    12  H    4.531505   3.467089   2.136540   2.672335   1.086018
    13  H    4.054472   2.761621   2.154065   3.340131   1.087249
    14  H    5.136548   3.850609   3.198027   3.562531   1.950268
                    6          7          8          9         10
     6  O    0.000000
     7  H    4.243390   0.000000
     8  H    3.399233   2.781745   0.000000
     9  H    2.636551   2.376827   1.755758   0.000000
    10  H    3.291014   2.745527   2.463006   3.032086   0.000000
    11  H    2.254207   2.831222   3.671899   2.630277   2.773755
    12  H    2.057971   4.547491   3.761422   3.784672   2.405286
    13  H    2.064929   4.422111   2.591594   3.059185   2.510389
    14  H    0.946533   5.188022   4.166567   3.506994   4.028119
                   11         12         13         14
    11  H    0.000000
    12  H    2.770384   0.000000
    13  H    3.452472   1.763389   0.000000
    14  H    3.041991   2.283879   2.377628   0.000000
 Stoichiometry    C3H8O3
 Framework group  C1[X(C3H8O3)]
 Deg. of freedom    36
 Full point group                 C1      NOp   1
 RotChk:  IX=0 Diff= 5.75D-15
 Largest Abelian subgroup         C1      NOp   1
 Largest concise Abelian subgroup C1      NOp   1
                         Standard orientation:                         
 ---------------------------------------------------------------------
 Center     Atomic      Atomic             Coordinates (Angstroms)
 Number     Number       Type             X           Y           Z
 ---------------------------------------------------------------------
      1          8           0        2.299088   -0.273722   -0.129106
      2          6           0        0.996134   -0.779209   -0.110515
      3          6           0        0.049881    0.212557    0.555178
      4          8           0        0.115839    1.447044   -0.118008
      5          6           0       -1.388123   -0.271530    0.622905
      6          8           0       -1.869625   -0.340565   -0.698550
      7          1           0        2.256968    0.617299   -0.453438
      8          1           0        1.023991   -1.708148    0.446656
      9          1           0        0.648216   -1.001923   -1.116266
     10          1           0        0.405180    0.398973    1.561787
     11          1           0       -0.432609    1.385472   -0.891505
     12          1           0       -1.973272    0.434112    1.205230
     13          1           0       -1.438371   -1.243364    1.107801
     14          1           0       -2.799872   -0.515381   -0.700366
 ---------------------------------------------------------------------
 Rotational constants (GHZ):      6.4346197      2.2824492      2.0191071
 Leave Link  202 at Wed Sep 20 14:32:16 2023, MaxMem=    33554432 cpu:         0.0
 (Enter /mnt/storage/apps/eb/software/gaussian/09/l601.exe)
 Copying SCF densities to generalized density rwf, IOpCl= 0 IROHF=0.

 **********************************************************************

            Population analysis using the SCF density.

 **********************************************************************

 Orbital symmetries:
       Occupied  (A) (A) (A) (A) (A) (A) (A) (A) (A) (A) (A) (A)
                 (A) (A) (A) (A) (A) (A) (A) (A) (A) (A) (A) (A)
                 (A)
       Virtual   (A) (A) (A) (A) (A) (A) (A) (A) (A) (A) (A) (A)
                 (A) (A) (A) (A) (A) (A) (A) (A) (A) (A) (A) (A)
                 (A) (A) (A) (A) (A) (A) (A) (A) (A) (A) (A) (A)
                 (A) (A) (A) (A) (A) (A) (A) (A) (A) (A) (A) (A)
                 (A) (A) (A) (A) (A) (A) (A) (A) (A) (A) (A) (A)
                 (A) (A) (A) (A) (A) (A) (A) (A) (A) (A) (A) (A)
                 (A) (A) (A) (A) (A) (A) (A) (A) (A)
 The electronic state is 1-A.
 Alpha  occ. eigenvalues --  -20.58142 -20.56277 -20.54468 -11.28721 -11.27869
 Alpha  occ. eigenvalues --  -11.26278  -1.39764  -1.37038  -1.34565  -1.03404
 Alpha  occ. eigenvalues --   -0.92195  -0.82696  -0.74016  -0.69223  -0.67366
 Alpha  occ. eigenvalues --   -0.65843  -0.62148  -0.60217  -0.57581  -0.54303
 Alpha  occ. eigenvalues --   -0.50990  -0.49247  -0.46967  -0.45583  -0.41400
 Alpha virt. eigenvalues --    0.20324   0.25261   0.26065   0.29237   0.29971
 Alpha virt. eigenvalues --    0.31488   0.31908   0.35454   0.36894   0.41274
 Alpha virt. eigenvalues --    0.41950   0.44654   0.48231   0.77201   0.77761
 Alpha virt. eigenvalues --    0.80199   0.80530   0.83640   0.91008   0.93243
 Alpha virt. eigenvalues --    0.94240   0.94982   1.07141   1.09058   1.10137
 Alpha virt. eigenvalues --    1.11965   1.12138   1.15719   1.16817   1.19632
 Alpha virt. eigenvalues --    1.20535   1.23596   1.26615   1.28676   1.29540
 Alpha virt. eigenvalues --    1.33593   1.38518   1.44917   1.46374   1.49318
 Alpha virt. eigenvalues --    1.56856   1.65333   1.67976   1.72712   1.83613
 Alpha virt. eigenvalues --    1.84865   1.90806   1.92545   1.97023   2.00348
 Alpha virt. eigenvalues --    2.05629   2.12531   2.14527   2.18190   2.22855
 Alpha virt. eigenvalues --    2.30844   2.37052   2.44307   2.47012   2.48536
 Alpha virt. eigenvalues --    2.51544   2.59344   2.61782   2.69298   2.70802
 Alpha virt. eigenvalues --    2.75271   2.82110   2.88301   2.90497   2.97501
 Alpha virt. eigenvalues --    3.00180   3.13087   3.17481   3.26526   3.28099
 Alpha virt. eigenvalues --    4.15544   4.21558   4.26603   4.67787   4.77764
 Alpha virt. eigenvalues --    4.97998
          Condensed to atoms (all electrons):
               1          2          3          4          5          6
     1  O    8.381061   0.226703  -0.041005  -0.004186   0.003219  -0.000006
     2  C    0.226703   4.794365   0.367938  -0.058850  -0.056161  -0.000585
     3  C   -0.041005   0.367938   4.862590   0.204369   0.342810  -0.062434
     4  O   -0.004186  -0.058850   0.204369   8.433021  -0.042845  -0.001988
     5  C    0.003219  -0.056161   0.342810  -0.042845   4.878082   0.197555
     6  O   -0.000006  -0.000585  -0.062434  -0.001988   0.197555   8.415579
     7  H    0.261793  -0.028533  -0.012617   0.016657   0.000500  -0.000004
     8  H   -0.037118   0.393424  -0.040712   0.003519  -0.000222   0.000292
     9  H   -0.040561   0.391677  -0.044264  -0.001162  -0.002066   0.003871
    10  H    0.002123  -0.047942   0.407787  -0.038175  -0.042292   0.002465
    11  H    0.000060  -0.000147  -0.029493   0.261228  -0.013045   0.016220
    12  H   -0.000061   0.005033  -0.035330  -0.000312   0.397179  -0.037968
    13  H   -0.000019  -0.003515  -0.042823   0.003281   0.391384  -0.038575
    14  H    0.000001  -0.000168   0.005796  -0.000025  -0.021196   0.264987
               7          8          9         10         11         12
     1  O    0.261793  -0.037118  -0.040561   0.002123   0.000060  -0.000061
     2  C   -0.028533   0.393424   0.391677  -0.047942  -0.000147   0.005033
     3  C   -0.012617  -0.040712  -0.044264   0.407787  -0.029493  -0.035330
     4  O    0.016657   0.003519  -0.001162  -0.038175   0.261228  -0.000312
     5  C    0.000500  -0.000222  -0.002066  -0.042292  -0.013045   0.397179
     6  O   -0.000004   0.000292   0.003871   0.002465   0.016220  -0.037968
     7  H    0.304881   0.005844  -0.001683  -0.000184  -0.000318  -0.000010
     8  H    0.005844   0.554418  -0.035671  -0.001824  -0.000046  -0.000188
     9  H   -0.001683  -0.035671   0.565658   0.005005   0.002067  -0.000076
    10  H   -0.000184  -0.001824   0.005005   0.525490   0.005310  -0.003495
    11  H   -0.000318  -0.000046   0.002067   0.005310   0.297481  -0.000261
    12  H   -0.000010  -0.000188  -0.000076  -0.003495  -0.000261   0.554031
    13  H   -0.000025   0.001238   0.000269   0.001411   0.000581  -0.039902
    14  H    0.000001  -0.000011  -0.000033  -0.000123  -0.000539  -0.004160
              13         14
     1  O   -0.000019   0.000001
     2  C   -0.003515  -0.000168
     3  C   -0.042823   0.005796
     4  O    0.003281  -0.000025
     5  C    0.391384  -0.021196
     6  O   -0.038575   0.264987
     7  H   -0.000025   0.000001
     8  H    0.001238  -0.000011
     9  H    0.000269  -0.000033
    10  H    0.001411  -0.000123
    11  H    0.000581  -0.000539
    12  H   -0.039902  -0.004160
    13  H    0.575127  -0.002168
    14  H   -0.002168   0.305262
 Mulliken charges:
               1
     1  O   -0.752005
     2  C    0.016761
     3  C    0.117388
     4  O   -0.774534
     5  C   -0.032902
     6  O   -0.759410
     7  H    0.453699
     8  H    0.157058
     9  H    0.156970
    10  H    0.184444
    11  H    0.460902
    12  H    0.165519
    13  H    0.153734
    14  H    0.452376
 Sum of Mulliken charges =   0.00000
 Mulliken charges with hydrogens summed into heavy atoms:
               1
     1  O   -0.298306
     2  C    0.330789
     3  C    0.301832
     4  O   -0.313632
     5  C    0.286350
     6  O   -0.307034
 Electronic spatial extent (au):  <R**2>=            637.9823
 Charge=              0.0000 electrons
 Dipole moment (field-independent basis, Debye):
    X=             -3.8686    Y=             -0.6493    Z=              0.3465  Tot=              3.9379
 Quadrupole moment (field-independent basis, Debye-Ang):
   XX=            -35.3998   YY=            -38.2486   ZZ=            -34.7999
   XY=              3.1701   XZ=             -1.2723   YZ=             -2.5230
 Traceless Quadrupole moment (field-independent basis, Debye-Ang):
   XX=              0.7497   YY=             -2.0992   ZZ=              1.3495
   XY=              3.1701   XZ=             -1.2723   YZ=             -2.5230
 Octapole moment (field-independent basis, Debye-Ang**2):
  XXX=            -44.9977  YYY=             -3.4406  ZZZ=             -3.8902  XYY=             -0.6951
  XXY=              6.3517  XXZ=             -5.5973  XZZ=              0.1792  YZZ=              4.1130
  YYZ=             -3.3624  XYZ=             -0.9936
 Hexadecapole moment (field-independent basis, Debye-Ang**3):
 XXXX=           -437.5233 YYYY=           -171.9881 ZZZZ=            -99.8001 XXXY=             45.3433
 XXXZ=             13.7901 YYYX=             -0.5682 YYYZ=             -7.5094 ZZZX=              4.2095
 ZZZY=             -2.5081 XXYY=           -100.1473 XXZZ=            -95.0708 YYZZ=            -40.2345
 XXYZ=             -1.5398 YYXZ=              2.6924 ZZXY=              0.9349
 N-N= 2.667935903767D+02 E-N=-1.341767982606D+03  KE= 3.422779281789D+02
 No NMR shielding tensors so no spin-rotation constants.
 Leave Link  601 at Wed Sep 20 14:32:16 2023, MaxMem=    33554432 cpu:         0.1
 (Enter /mnt/storage/apps/eb/software/gaussian/09/l9999.exe)
 1\1\GINC-SB084\FOpt\RHF\6-31G(d)\C3H8O3\NCA121\20-Sep-2023\0\\#P hf/6-
 31G* scf(qc) opt(tight,maxcycle=100)\\Gaussian input prepared by ASE\\
 0,1\O,2.2936358098,0.5811776675,-0.689234542\C,1.1122704074,-0.1647693
 065,-0.7278208091\C,0.2828282299,0.0866369628,0.5255596994\O,0.0204878
 517,1.4644555646,0.6450649142\C,-1.0161647099,-0.6995300863,0.56218629
 67\O,-1.8345015347,-0.2049411869,-0.4715248314\H,2.0634970309,1.471873
 9309,-0.4556102397\H,1.3976573544,-1.2082516369,-0.7898083588\H,0.5262
 299727,0.07549547,-1.6115704575\H,0.8802212575,-0.1822703555,1.3887285
 359\H,-0.7105280095,1.6712697603,0.0743385078\H,-1.4920863168,-0.55416
 50227,1.5274850589\H,-0.820543531,-1.7609642052,0.4310336841\H,-2.7030
 028124,-0.5760185562,-0.4088274585\\Version=ES64L-G09RevD.01\State=1-A
 \HF=-342.8144275\RMSD=0.000e+00\RMSF=1.400e-06\Dipole=-1.3857643,-0.65
 24169,0.2331648\Quadrupole=-0.3236584,1.9824559,-1.6587974,1.7846516,0
 .7105781,-2.1821591\PG=C01 [X(C3H8O3)]\\@


 The earth never tires,
 The earth is rude, silent, incomprehensible at first,
 Nature is rude and incomprehensible at first,
 Be not discouraged, keep on,
 There are divine things well envelop'd,
 I swear to you there are divine things more beautiful than words can tell.
                                 -- Walt Whitman
 Job cpu time:       0 days  0 hours  0 minutes 34.9 seconds.
 File lengths (MBytes):  RWF=      6 Int=      0 D2E=      0 Chk=      2 Scr=      1
 Normal termination of Gaussian 09 at Wed Sep 20 14:32:16 2023.
