 Entering Gaussian System, Link 0=g09
 Initial command:
 /mnt/storage/apps/eb/software/gaussian/09/l1.exe "/scratch/nca121/18446470/Gau-3933.inp" -scrdir="/scratch/nca121/18446470/"
 Entering Link 1 = /mnt/storage/apps/eb/software/gaussian/09/l1.exe PID=      3934.
  
 Copyright (c) 1988,1990,1992,1993,1995,1998,2003,2009,2013,
            Gaussian, Inc.  All Rights Reserved.
  
 This is part of the Gaussian(R) 09 program.  It is based on
 the Gaussian(R) 03 system (copyright 2003, Gaussian, Inc.),
 the Gaussian(R) 98 system (copyright 1998, Gaussian, Inc.),
 the Gaussian(R) 94 system (copyright 1995, Gaussian, Inc.),
 the Gaussian 92(TM) system (copyright 1992, Gaussian, Inc.),
 the Gaussian 90(TM) system (copyright 1990, Gaussian, Inc.),
 the Gaussian 88(TM) system (copyright 1988, Gaussian, Inc.),
 the Gaussian 86(TM) system (copyright 1986, Carnegie Mellon
 University), and the Gaussian 82(TM) system (copyright 1983,
 Carnegie Mellon University). Gaussian is a federally registered
 trademark of Gaussian, Inc.
  
 This software contains proprietary and confidential information,
 including trade secrets, belonging to Gaussian, Inc.
  
 This software is provided under written license and may be
 used, copied, transmitted, or stored only in accord with that
 written license.
  
 The following legend is applicable only to US Government
 contracts under FAR:
  
                    RESTRICTED RIGHTS LEGEND
  
 Use, reproduction and disclosure by the US Government is
 subject to restrictions as set forth in subparagraphs (a)
 and (c) of the Commercial Computer Software - Restricted
 Rights clause in FAR 52.227-19.
  
 Gaussian, Inc.
 340 Quinnipiac St., Bldg. 40, Wallingford CT 06492
  
  
 ---------------------------------------------------------------
 Warning -- This program may not be used in any manner that
 competes with the business of Gaussian, Inc. or will provide
 assistance to any competitor of Gaussian, Inc.  The licensee
 of this program is prohibited from giving any competitor of
 Gaussian, Inc. access to this program.  By using this program,
 the user acknowledges that Gaussian, Inc. is engaged in the
 business of creating and licensing software in the field of
 computational chemistry and represents and warrants to the
 licensee that it is not a competitor of Gaussian, Inc. and that
 it will not use this program in any manner prohibited above.
 ---------------------------------------------------------------
  

 Cite this work as:
 Gaussian 09, Revision D.01,
 M. J. Frisch, G. W. Trucks, H. B. Schlegel, G. E. Scuseria, 
 M. A. Robb, J. R. Cheeseman, G. Scalmani, V. Barone, B. Mennucci, 
 G. A. Petersson, H. Nakatsuji, M. Caricato, X. Li, H. P. Hratchian, 
 A. F. Izmaylov, J. Bloino, G. Zheng, J. L. Sonnenberg, M. Hada, 
 M. Ehara, K. Toyota, R. Fukuda, J. Hasegawa, M. Ishida, T. Nakajima, 
 Y. Honda, O. Kitao, H. Nakai, T. Vreven, J. A. Montgomery, Jr., 
 J. E. Peralta, F. Ogliaro, M. Bearpark, J. J. Heyd, E. Brothers, 
 K. N. Kudin, V. N. Staroverov, T. Keith, R. Kobayashi, J. Normand, 
 K. Raghavachari, A. Rendell, J. C. Burant, S. S. Iyengar, J. Tomasi, 
 M. Cossi, N. Rega, J. M. Millam, M. Klene, J. E. Knox, J. B. Cross, 
 V. Bakken, C. Adamo, J. Jaramillo, R. Gomperts, R. E. Stratmann, 
 O. Yazyev, A. J. Austin, R. Cammi, C. Pomelli, J. W. Ochterski, 
 R. L. Martin, K. Morokuma, V. G. Zakrzewski, G. A. Voth, 
 P. Salvador, J. J. Dannenberg, S. Dapprich, A. D. Daniels, 
 O. Farkas, J. B. Foresman, J. V. Ortiz, J. Cioslowski, 
 and D. J. Fox, Gaussian, Inc., Wallingford CT, 2013.
 
 ******************************************
 Gaussian 09:  ES64L-G09RevD.01 24-Apr-2013
                20-Sep-2023 
 ******************************************
 --------------------------------------------
 #P hf/6-31G* scf(qc) opt(tight,maxcycle=100)
 --------------------------------------------
 1/6=100,7=10,18=20,19=15,38=1/1,3;
 2/9=110,12=2,17=6,18=5,40=1/2;
 3/5=1,6=6,7=1,11=9,16=1,25=1,30=1,71=1/1,2,3;
 4//1;
 5/5=2,8=3,38=5/8;
 6/7=2,8=2,9=2,10=2,28=1/1;
 7//1,2,3,16;
 1/6=100,7=10,18=20,19=15/3(2);
 2/9=110/2;
 99//99;
 2/9=110/2;
 3/5=1,6=6,7=1,11=9,16=1,25=1,30=1,71=1/1,2,3;
 4/5=5,16=3,69=1/1;
 5/5=2,8=3,38=5/8;
 7//1,2,3,16;
 1/6=100,7=10,18=20,19=15/3(-5);
 2/9=110/2;
 6/7=2,8=2,9=2,10=2,19=2,28=1/1;
 99/9=1/99;
 Leave Link    1 at Wed Sep 20 14:32:16 2023, MaxMem=           0 cpu:         0.0
 (Enter /mnt/storage/apps/eb/software/gaussian/09/l101.exe)
 ------------------------------
 Gaussian input prepared by ASE
 ------------------------------
 Symbolic Z-matrix:
 Charge =  0 Multiplicity = 1
 O                     2.14434   0.89324   0.53955 
 C                     1.04496   0.06348   0.77079 
 C                    -0.04491   0.49597  -0.16959 
 O                     0.44953   0.34753  -1.4696 
 C                    -1.2856   -0.3602   -0.05563 
 O                    -1.8438   -0.26689   1.2218 
 H                     2.97765   0.40425   0.38072 
 H                     0.74793   0.00504   1.81645 
 H                     1.36886  -0.95888   0.43363 
 H                    -0.32986   1.54867  -0.03782 
 H                     0.63149  -0.64116  -1.5654 
 H                    -1.05598  -1.42796  -0.30331 
 H                    -1.98755  -0.00666  -0.84578 
 H                    -2.81706  -0.09643   1.13484 
 
 NAtoms=     14 NQM=       14 NQMF=       0 NMMI=      0 NMMIF=      0
                NMic=       0 NMicF=      0.
                    Isotopes and Nuclear Properties:
 (Nuclear quadrupole moments (NQMom) in fm**2, nuclear magnetic moments (NMagM)
  in nuclear magnetons)

  Atom         1           2           3           4           5           6           7           8           9          10
 IAtWgt=          16          12          12          16          12          16           1           1           1           1
 AtmWgt=  15.9949146  12.0000000  12.0000000  15.9949146  12.0000000  15.9949146   1.0078250   1.0078250   1.0078250   1.0078250
 NucSpn=           0           0           0           0           0           0           1           1           1           1
 AtZEff=   0.0000000   0.0000000   0.0000000   0.0000000   0.0000000   0.0000000   0.0000000   0.0000000   0.0000000   0.0000000
 NQMom=    0.0000000   0.0000000   0.0000000   0.0000000   0.0000000   0.0000000   0.0000000   0.0000000   0.0000000   0.0000000
 NMagM=    0.0000000   0.0000000   0.0000000   0.0000000   0.0000000   0.0000000   2.7928460   2.7928460   2.7928460   2.7928460
 AtZNuc=   8.0000000   6.0000000   6.0000000   8.0000000   6.0000000   8.0000000   1.0000000   1.0000000   1.0000000   1.0000000

  Atom        11          12          13          14
 IAtWgt=           1           1           1           1
 AtmWgt=   1.0078250   1.0078250   1.0078250   1.0078250
 NucSpn=           1           1           1           1
 AtZEff=   0.0000000   0.0000000   0.0000000   0.0000000
 NQMom=    0.0000000   0.0000000   0.0000000   0.0000000
 NMagM=    2.7928460   2.7928460   2.7928460   2.7928460
 AtZNuc=   1.0000000   1.0000000   1.0000000   1.0000000
 Leave Link  101 at Wed Sep 20 14:32:16 2023, MaxMem=    33554432 cpu:         0.1
 (Enter /mnt/storage/apps/eb/software/gaussian/09/l103.exe)

 GradGradGradGradGradGradGradGradGradGradGradGradGradGradGradGradGradGrad
 Berny optimization.
 Initialization pass.
                           ----------------------------
                           !    Initial Parameters    !
                           ! (Angstroms and Degrees)  !
 --------------------------                            --------------------------
 ! Name  Definition              Value          Derivative Info.                !
 --------------------------------------------------------------------------------
 ! R1    R(1,2)                  1.3966         estimate D2E/DX2                !
 ! R2    R(1,7)                  0.9792         estimate D2E/DX2                !
 ! R3    R(2,3)                  1.5031         estimate D2E/DX2                !
 ! R4    R(2,8)                  1.0886         estimate D2E/DX2                !
 ! R5    R(2,9)                  1.1242         estimate D2E/DX2                !
 ! R6    R(3,4)                  1.3988         estimate D2E/DX2                !
 ! R7    R(3,5)                  1.5117         estimate D2E/DX2                !
 ! R8    R(3,10)                 1.0985         estimate D2E/DX2                !
 ! R9    R(4,11)                 1.0099         estimate D2E/DX2                !
 ! R10   R(5,6)                  1.3972         estimate D2E/DX2                !
 ! R11   R(5,12)                 1.1199         estimate D2E/DX2                !
 ! R12   R(5,13)                 1.1145         estimate D2E/DX2                !
 ! R13   R(6,14)                 0.9919         estimate D2E/DX2                !
 ! A1    A(2,1,7)              113.5832         estimate D2E/DX2                !
 ! A2    A(1,2,3)              107.2317         estimate D2E/DX2                !
 ! A3    A(1,2,8)              113.9358         estimate D2E/DX2                !
 ! A4    A(1,2,9)              105.2984         estimate D2E/DX2                !
 ! A5    A(3,2,8)              114.7441         estimate D2E/DX2                !
 ! A6    A(3,2,9)              106.4364         estimate D2E/DX2                !
 ! A7    A(8,2,9)              108.5343         estimate D2E/DX2                !
 ! A8    A(2,3,4)              107.135          estimate D2E/DX2                !
 ! A9    A(2,3,5)              112.6417         estimate D2E/DX2                !
 ! A10   A(2,3,10)             112.8784         estimate D2E/DX2                !
 ! A11   A(4,3,5)              107.4619         estimate D2E/DX2                !
 ! A12   A(4,3,10)             107.751          estimate D2E/DX2                !
 ! A13   A(5,3,10)             108.7113         estimate D2E/DX2                !
 ! A14   A(3,4,11)             104.8186         estimate D2E/DX2                !
 ! A15   A(3,5,6)              111.038          estimate D2E/DX2                !
 ! A16   A(3,5,12)             110.796          estimate D2E/DX2                !
 ! A17   A(3,5,13)             106.4876         estimate D2E/DX2                !
 ! A18   A(6,5,12)             110.3528         estimate D2E/DX2                !
 ! A19   A(6,5,13)             112.0488         estimate D2E/DX2                !
 ! A20   A(12,5,13)            105.9496         estimate D2E/DX2                !
 ! A21   A(5,6,14)             108.8649         estimate D2E/DX2                !
 ! D1    D(7,1,2,3)           -128.1557         estimate D2E/DX2                !
 ! D2    D(7,1,2,8)            103.7362         estimate D2E/DX2                !
 ! D3    D(7,1,2,9)            -15.0785         estimate D2E/DX2                !
 ! D4    D(1,2,3,4)             60.0            estimate D2E/DX2                !
 ! D5    D(1,2,3,5)            177.9584         estimate D2E/DX2                !
 ! D6    D(1,2,3,10)           -58.4494         estimate D2E/DX2                !
 ! D7    D(8,2,3,4)           -172.362          estimate D2E/DX2                !
 ! D8    D(8,2,3,5)            -54.4036         estimate D2E/DX2                !
 ! D9    D(8,2,3,10)            69.1886         estimate D2E/DX2                !
 ! D10   D(9,2,3,4)            -52.3036         estimate D2E/DX2                !
 ! D11   D(9,2,3,5)             65.6548         estimate D2E/DX2                !
 ! D12   D(9,2,3,10)          -170.753          estimate D2E/DX2                !
 ! D13   D(2,3,4,11)            62.3753         estimate D2E/DX2                !
 ! D14   D(5,3,4,11)           -58.9096         estimate D2E/DX2                !
 ! D15   D(10,3,4,11)         -175.898          estimate D2E/DX2                !
 ! D16   D(2,3,5,6)             62.2331         estimate D2E/DX2                !
 ! D17   D(2,3,5,12)           -60.7699         estimate D2E/DX2                !
 ! D18   D(2,3,5,13)          -175.5385         estimate D2E/DX2                !
 ! D19   D(4,3,5,6)            179.999          estimate D2E/DX2                !
 ! D20   D(4,3,5,12)            56.9959         estimate D2E/DX2                !
 ! D21   D(4,3,5,13)           -57.7727         estimate D2E/DX2                !
 ! D22   D(10,3,5,6)           -63.6424         estimate D2E/DX2                !
 ! D23   D(10,3,5,12)          173.3546         estimate D2E/DX2                !
 ! D24   D(10,3,5,13)           58.586          estimate D2E/DX2                !
 ! D25   D(3,5,6,14)           131.5041         estimate D2E/DX2                !
 ! D26   D(12,5,6,14)         -105.238          estimate D2E/DX2                !
 ! D27   D(13,5,6,14)           12.5669         estimate D2E/DX2                !
 --------------------------------------------------------------------------------
 Trust Radius=3.00D-01 FncErr=1.00D-07 GrdErr=1.00D-07
 Number of steps in this run=    100 maximum allowed number of steps=    100.
 GradGradGradGradGradGradGradGradGradGradGradGradGradGradGradGradGradGrad

 Leave Link  103 at Wed Sep 20 14:32:16 2023, MaxMem=    33554432 cpu:         0.0
 (Enter /mnt/storage/apps/eb/software/gaussian/09/l202.exe)
                          Input orientation:                          
 ---------------------------------------------------------------------
 Center     Atomic      Atomic             Coordinates (Angstroms)
 Number     Number       Type             X           Y           Z
 ---------------------------------------------------------------------
      1          8           0        2.144340    0.893235    0.539550
      2          6           0        1.044963    0.063483    0.770789
      3          6           0       -0.044910    0.495973   -0.169594
      4          8           0        0.449531    0.347531   -1.469595
      5          6           0       -1.285599   -0.360204   -0.055626
      6          8           0       -1.843795   -0.266887    1.221795
      7          1           0        2.977652    0.404252    0.380715
      8          1           0        0.747932    0.005042    1.816453
      9          1           0        1.368859   -0.958884    0.433631
     10          1           0       -0.329863    1.548674   -0.037818
     11          1           0        0.631485   -0.641163   -1.565395
     12          1           0       -1.055984   -1.427959   -0.303305
     13          1           0       -1.987554   -0.006662   -0.845782
     14          1           0       -2.817056   -0.096430    1.134838
 ---------------------------------------------------------------------
                    Distance matrix (angstroms):
                    1          2          3          4          5
     1  O    0.000000
     2  C    1.396635   0.000000
     3  C    2.335277   1.503061   0.000000
     4  O    2.684555   2.335496   1.398753   0.000000
     5  C    3.699976   2.508783   1.511733   2.347525   0.000000
     6  O    4.209105   2.942358   2.398730   3.588932   1.397174
     7  H    0.979154   2.000892   3.073619   3.133410   4.353171
     8  H    2.090293   1.088603   2.194082   3.317296   2.788070
     9  H    2.010705   1.124197   2.116420   2.484784   2.764767
    10  H    2.623859   2.179400   1.098518   2.024891   2.134845
    11  H    3.012292   2.474923   1.923239   1.009852   2.456329
    12  H    4.042329   2.791425   2.177536   2.603684   1.119897
    13  H    4.449888   3.437205   2.117484   2.540468   1.114486
    14  H    5.094041   3.882434   3.120461   4.201281   1.957586
                    6          7          8          9         10
     6  O    0.000000
     7  H    4.940060   0.000000
     8  H    2.672941   2.681858   0.000000
     9  H    3.379528   2.109302   1.796358   0.000000
    10  H    2.678596   3.524844   2.642492   3.065252   0.000000
    11  H    3.746401   3.222536   3.445002   2.154245   2.837793
    12  H    2.072357   4.482756   3.130651   2.577396   3.075399
    13  H    2.088841   5.130927   3.817135   3.716064   2.412429
    14  H    0.991894   5.864983   3.630983   4.330982   3.204312
                   11         12         13         14
    11  H    0.000000
    12  H    2.249327   0.000000
    13  H    2.789229   1.783869   0.000000
    14  H    4.413664   2.634881   2.149183   0.000000
 Stoichiometry    C3H8O3
 Framework group  C1[X(C3H8O3)]
 Deg. of freedom    36
 Full point group                 C1      NOp   1
 Largest Abelian subgroup         C1      NOp   1
 Largest concise Abelian subgroup C1      NOp   1
                         Standard orientation:                         
 ---------------------------------------------------------------------
 Center     Atomic      Atomic             Coordinates (Angstroms)
 Number     Number       Type             X           Y           Z
 ---------------------------------------------------------------------
      1          8           0       -2.116974   -0.666681   -0.242860
      2          6           0       -0.833089   -0.755158    0.299726
      3          6           0       -0.000306    0.313971   -0.350372
      4          8           0       -0.602086    1.541642   -0.055085
      5          6           0        1.411582    0.359722    0.187972
      6          8           0        2.085035   -0.837359   -0.068066
      7          1           0       -2.824538   -0.612863    0.431824
      8          1           0       -0.404161   -1.754851    0.258618
      9          1           0       -0.945803   -0.458737    1.378267
     10          1           0        0.042414    0.216298   -1.443705
     11          1           0       -0.556178    1.616441    0.950946
     12          1           0        1.411476    0.579392    1.286113
     13          1           0        1.907545    1.231120   -0.298613
     14          1           0        2.972325   -0.628827   -0.459326
 ---------------------------------------------------------------------
 Rotational constants (GHZ):      5.9064955      2.3566111      1.8189352
 Leave Link  202 at Wed Sep 20 14:32:16 2023, MaxMem=    33554432 cpu:         0.0
 (Enter /mnt/storage/apps/eb/software/gaussian/09/l301.exe)
 Standard basis: 6-31G(d) (6D, 7F)
 Ernie: Thresh=  0.10000D-02 Tol=  0.10000D-05 Strict=F.
 There are   106 symmetry adapted cartesian basis functions of A   symmetry.
 There are   106 symmetry adapted basis functions of A   symmetry.
   106 basis functions,   200 primitive gaussians,   106 cartesian basis functions
    25 alpha electrons       25 beta electrons
       nuclear repulsion energy       263.7529026534 Hartrees.
 IExCor=    0 DFT=F Ex=HF Corr=None ExCW=0 ScaHFX=  1.000000
 ScaDFX=  1.000000  1.000000  1.000000  1.000000 ScalE2=  1.000000  1.000000
 IRadAn=      0 IRanWt=     -1 IRanGd=            0 ICorTp=0 IEmpDi=  4
 NAtoms=   14 NActive=   14 NUniq=   14 SFac= 1.00D+00 NAtFMM=   60 NAOKFM=F Big=F
 Integral buffers will be    131072 words long.
 Raffenetti 1 integral format.
 Two-electron integral symmetry is turned on.
 Leave Link  301 at Wed Sep 20 14:32:16 2023, MaxMem=    33554432 cpu:         0.0
 (Enter /mnt/storage/apps/eb/software/gaussian/09/l302.exe)
 NPDir=0 NMtPBC=     1 NCelOv=     1 NCel=       1 NClECP=     1 NCelD=      1
         NCelK=      1 NCelE2=     1 NClLst=     1 CellRange=     0.0.
 One-electron integrals computed using PRISM.
 NBasis=   106 RedAO= T EigKep=  2.90D-03  NBF=   106
 NBsUse=   106 1.00D-06 EigRej= -1.00D+00 NBFU=   106
 Leave Link  302 at Wed Sep 20 14:32:16 2023, MaxMem=    33554432 cpu:         0.1
 (Enter /mnt/storage/apps/eb/software/gaussian/09/l303.exe)
 DipDrv:  MaxL=1.
 Leave Link  303 at Wed Sep 20 14:32:16 2023, MaxMem=    33554432 cpu:         0.0
 (Enter /mnt/storage/apps/eb/software/gaussian/09/l401.exe)
 ExpMin= 1.61D-01 ExpMax= 5.48D+03 ExpMxC= 8.25D+02 IAcc=1 IRadAn=         1 AccDes= 0.00D+00
 Harris functional with IExCor=  205 and IRadAn=       1 diagonalized for initial guess.
 HarFok:  IExCor=  205 AccDes= 0.00D+00 IRadAn=         1 IDoV= 1 UseB2=F ITyADJ=14
 ICtDFT=  3500011 ScaDFX=  1.000000  1.000000  1.000000  1.000000
 FoFCou: FMM=F IPFlag=           0 FMFlag=      100000 FMFlg1=           0
         NFxFlg=           0 DoJE=T BraDBF=F KetDBF=T FulRan=T
         wScrn=  0.000000 ICntrl=     500 IOpCl=  0 I1Cent=   200000004 NGrid=           0
         NMat0=    1 NMatS0=      1 NMatT0=    0 NMatD0=    1 NMtDS0=    0 NMtDT0=    0
 Petite list used in FoFCou.
 Harris En= -343.185629749007    
 JPrj=0 DoOrth=F DoCkMO=F.
 Leave Link  401 at Wed Sep 20 14:32:16 2023, MaxMem=    33554432 cpu:         0.3
 (Enter /mnt/storage/apps/eb/software/gaussian/09/l508.exe)
 Direct SCF.
 Tight linear equation convergence will be used.
 RHF wavefunction.
 Quadratic Convergence SCF Method.
 Line search only if initial step raises energy.
 Integral symmetry usage will be decided dynamically.
 ReadGW:  IGet=1 IStart=         402 Next=         402 LGW=           0.
 Keep R1 ints in memory in canonical form, NReq=17056569.
 FoFCou: FMM=F IPFlag=           0 FMFlag=           0 FMFlg1=           0
         NFxFlg=           0 DoJE=F BraDBF=F KetDBF=F FulRan=T
         wScrn=  0.000000 ICntrl=     600 IOpCl=  0 I1Cent=           0 NGrid=           0
         NMat0=    1 NMatS0=   5671 NMatT0=    0 NMatD0=    1 NMtDS0=    0 NMtDT0=    0
 Symmetry not used in FoFCou.
 Iteration   1 EE= -342.529477210026                                    Grad=9.389D-01 Max rot=    8.2813 deg.
 Gradient too large for Newton-Raphson -- use scaled steepest descent instead.
 Alpha Gap=     0.602 HL deriv= 3.68D-03
     ILin= 1 X=0.000D+00 Y=-3.425294772100D+02 DE= 0.00D+00 F= -7.09D-01
     ILin= 2 X=3.000D-01 Y=-3.426958255209D+02 DE=-1.66D-01 F= -3.99D-01
     ILin= 3 X=5.000D-01 Y=-3.427546181087D+02 DE=-2.25D-01 F= -1.89D-01
     ILin= 4 X=9.000D-01 Y=-3.427458123596D+02 DE=-2.16D-01 F=  2.33D-01
     An  expanding polynomial of degree  4 produced  0.6794
 Iteration   2 EE= -342.771561755726     Delta-E=       -0.242084545701 Grad=2.989D-01 Max rot=    3.6271 deg.
 Gradient too large for Newton-Raphson -- use scaled steepest descent instead.
 Alpha Gap=     0.671 HL deriv= 8.97D-04
     ILin= 1 X=0.000D+00 Y=-3.427715617557D+02 DE= 0.00D+00 F= -2.79D-02
     ILin= 2 X=5.000D-01 Y=-3.427816079270D+02 DE=-1.00D-02 F= -1.23D-02
     ILin= 3 X=9.000D-01 Y=-3.427840576224D+02 DE=-1.25D-02 F=  6.55D-05
     ILin= 4 X=1.800D+00 Y=-3.427715222208D+02 DE= 3.95D-05 F=  2.77D-02
     An  expanding polynomial of degree  4 produced  0.8979
     Minimum is close to point  3 DX= -2.10D-03 DF= -6.79D-08 DXR=  2.33D-03 DFR=  5.43D-06 which will be used.
 Iteration   3 EE= -342.784057622370     Delta-E=       -0.012495866644 Grad=6.457D-02 Max rot=    0.3962 deg.
 Gradient too large for Newton-Raphson -- use scaled steepest descent instead.
 Alpha Gap=     0.664 HL deriv= 4.92D-04
     ILin= 1 X=0.000D+00 Y=-3.427840576224D+02 DE= 0.00D+00 F= -3.73D-03
     ILin= 2 X=8.000D-01 Y=-3.427853393298D+02 DE=-1.28D-03 F=  5.26D-04
     Accept linear search using points  1 and  2.
     An  expanding polynomial of degree  2 produced  0.6482
 Iteration   4 EE= -342.785357870708     Delta-E=       -0.001300248338 Grad=2.232D-02 Max rot=    0.1846 deg.
 Gradient too large for Newton-Raphson -- use scaled steepest descent instead.
 Alpha Gap=     0.669 HL deriv= 7.13D-06
     ILin= 1 X=0.000D+00 Y=-3.427853578707D+02 DE= 0.00D+00 F= -3.79D-04
     ILin= 2 X=8.000D-01 Y=-3.427855571500D+02 DE=-1.99D-04 F= -1.19D-04
     Reject lnstep minimum 1.778D+00 FVal=-3.427856719276D+02 Lims=  0.00D+00  8.00D-01
     ILin= 3 X=1.500D+00 Y=-3.427855607858D+02 DE=-2.03D-04 F=  1.09D-04
     Accept linear search using points  2 and  3.
     An  expanding polynomial of degree  3 produced  1.1588
 Iteration   5 EE= -342.785578915080     Delta-E=       -0.000221044373 Grad=7.689D-03 Max rot=    0.0386 deg.
 QCNR:  CnvC1=6.36D-09 CnvC2=6.36D-08
 LinEq1:  Iter=  0 NonCon=     1 RMS=7.78D-05 Max=5.77D-04 NDo=     1
 AX will form     1 AO Fock derivatives at one time.
 LinEq1:  Iter=  1 NonCon=     1 RMS=3.41D-05 Max=2.97D-04 NDo=     1
 LinEq1:  Iter=  2 NonCon=     1 RMS=2.94D-06 Max=3.32D-05 NDo=     1
 LinEq1:  Iter=  3 NonCon=     1 RMS=9.03D-07 Max=5.33D-06 NDo=     1
 LinEq1:  Iter=  4 NonCon=     1 RMS=3.04D-07 Max=3.06D-06 NDo=     1
 LinEq1:  Iter=  5 NonCon=     1 RMS=7.87D-08 Max=5.26D-07 NDo=     1
 LinEq1:  Iter=  6 NonCon=     1 RMS=2.44D-08 Max=2.21D-07 NDo=     1
 LinEq1:  Iter=  7 NonCon=     0 RMS=5.59D-09 Max=5.59D-08 NDo=     1
 Linear equations converged to 6.364D-09 6.364D-08 after     7 iterations.
 Angle between quadratic step and gradient=  41.60 degrees.
     ILin= 1 X=0.000D+00 Y=-3.427855789151D+02 DE= 0.00D+00 F= -5.46D-05
     ILin= 2 X=1.000D+00 Y=-3.427856062062D+02 DE=-2.73D-05 F=  9.68D-09
     Accept linear search using points  1 and  2.
     An  expanding polynomial of degree  2 produced  0.9998
     Minimum is close to point  2 DX= -1.77D-04 DF= -8.53D-13 DXR=  1.77D-04 DFR=  3.12D-08 which will be used.
 Iteration   6 EE= -342.785606206208     Delta-E=       -0.000027291127 Grad=3.565D-06 Max rot=    0.0000 deg.
 QCNR:  CnvC1=3.56D-11 CnvC2=3.56D-10
 LinEq1:  Iter=  0 NonCon=     1 RMS=4.88D-08 Max=5.25D-07 NDo=     1
 LinEq1:  Iter=  1 NonCon=     1 RMS=9.74D-09 Max=6.45D-08 NDo=     1
 LinEq1:  Iter=  2 NonCon=     1 RMS=3.15D-09 Max=4.01D-08 NDo=     1
 LinEq1:  Iter=  3 NonCon=     1 RMS=8.39D-10 Max=5.15D-09 NDo=     1
 LinEq1:  Iter=  4 NonCon=     1 RMS=2.88D-10 Max=2.27D-09 NDo=     1
 LinEq1:  Iter=  5 NonCon=     1 RMS=7.08D-11 Max=4.59D-10 NDo=     1
 LinEq1:  Iter=  6 NonCon=     0 RMS=1.57D-11 Max=1.10D-10 NDo=     1
 Linear equations converged to 3.565D-11 3.565D-10 after     6 iterations.
 Angle between quadratic step and gradient=  30.75 degrees.
     ILin= 1 X=0.000D+00 Y=-3.427856062062D+02 DE= 0.00D+00 F= -2.54D-11
     ILin= 2 X=1.000D+00 Y=-3.427856062062D+02 DE=-1.19D-11
 Iteration   7 EE= -342.785606206220     Delta-E=       -0.000000000012 Grad=2.768D-09 Max rot=    0.0000 deg.
 Rotation gradient small -- convergence achieved.
 SCF Done:  E(RHF) =  -342.785606206     a.u. after    7 cycles
            Convg  =    0.2768D-08                    28 Fock formations.
              S**2 =  0.0000                  -V/T =  2.0023
 Leave Link  508 at Wed Sep 20 14:32:18 2023, MaxMem=    33554432 cpu:         1.4
 (Enter /mnt/storage/apps/eb/software/gaussian/09/l601.exe)
 Copying SCF densities to generalized density rwf, IOpCl= 0 IROHF=0.

 **********************************************************************

            Population analysis using the SCF density.

 **********************************************************************

 Orbital symmetries:
       Occupied  (A) (A) (A) (A) (A) (A) (A) (A) (A) (A) (A) (A)
                 (A) (A) (A) (A) (A) (A) (A) (A) (A) (A) (A) (A)
                 (A)
       Virtual   (A) (A) (A) (A) (A) (A) (A) (A) (A) (A) (A) (A)
                 (A) (A) (A) (A) (A) (A) (A) (A) (A) (A) (A) (A)
                 (A) (A) (A) (A) (A) (A) (A) (A) (A) (A) (A) (A)
                 (A) (A) (A) (A) (A) (A) (A) (A) (A) (A) (A) (A)
                 (A) (A) (A) (A) (A) (A) (A) (A) (A) (A) (A) (A)
                 (A) (A) (A) (A) (A) (A) (A) (A) (A) (A) (A) (A)
                 (A) (A) (A) (A) (A) (A) (A) (A) (A)
 The electronic state is 1-A.
 Alpha  occ. eigenvalues --  -20.57379 -20.56319 -20.55087 -11.28340 -11.27347
 Alpha  occ. eigenvalues --  -11.27156  -1.37907  -1.36349  -1.33997  -1.02062
 Alpha  occ. eigenvalues --   -0.91579  -0.81352  -0.70942  -0.69983  -0.66939
 Alpha  occ. eigenvalues --   -0.65100  -0.62411  -0.59797  -0.55691  -0.52767
 Alpha  occ. eigenvalues --   -0.50267  -0.48429  -0.46193  -0.43913  -0.41790
 Alpha virt. eigenvalues --    0.19439   0.20372   0.23384   0.28173   0.29707
 Alpha virt. eigenvalues --    0.31159   0.33349   0.34451   0.39493   0.41872
 Alpha virt. eigenvalues --    0.44886   0.46849   0.48744   0.75056   0.80053
 Alpha virt. eigenvalues --    0.80739   0.83700   0.86513   0.87945   0.93031
 Alpha virt. eigenvalues --    0.96832   0.98647   1.04885   1.07487   1.09102
 Alpha virt. eigenvalues --    1.09712   1.11131   1.12776   1.16070   1.17267
 Alpha virt. eigenvalues --    1.18490   1.21056   1.23924   1.26743   1.30114
 Alpha virt. eigenvalues --    1.31802   1.36831   1.42408   1.48552   1.51696
 Alpha virt. eigenvalues --    1.52232   1.62717   1.67099   1.74655   1.80394
 Alpha virt. eigenvalues --    1.86348   1.90563   1.92360   1.95796   2.01954
 Alpha virt. eigenvalues --    2.10034   2.14238   2.17707   2.23152   2.27693
 Alpha virt. eigenvalues --    2.32704   2.40828   2.40932   2.44212   2.45843
 Alpha virt. eigenvalues --    2.48603   2.55835   2.58832   2.64622   2.68691
 Alpha virt. eigenvalues --    2.77665   2.82942   2.84248   2.88255   2.96209
 Alpha virt. eigenvalues --    3.04026   3.12657   3.22904   3.26949   3.30743
 Alpha virt. eigenvalues --    4.11482   4.22428   4.30917   4.64535   4.77726
 Alpha virt. eigenvalues --    4.97577
          Condensed to atoms (all electrons):
               1          2          3          4          5          6
     1  O    8.409609   0.208820  -0.065092   0.001749   0.003139  -0.000017
     2  C    0.208820   4.833040   0.354922  -0.061400  -0.070484   0.002371
     3  C   -0.065092   0.354922   4.907139   0.188483   0.346764  -0.051107
     4  O    0.001749  -0.061400   0.188483   8.416677  -0.045871   0.001862
     5  C    0.003139  -0.070484   0.346764  -0.045871   4.896389   0.174806
     6  O   -0.000017   0.002371  -0.051107   0.001862   0.174806   8.413845
     7  H    0.261462  -0.021193   0.004157   0.000132  -0.000199   0.000001
     8  H   -0.032171   0.391406  -0.047904   0.003593   0.002549   0.003032
     9  H   -0.044698   0.391972  -0.044963  -0.004964  -0.002717   0.000207
    10  H   -0.000287  -0.037855   0.394262  -0.032299  -0.041016   0.004526
    11  H    0.000492  -0.005630  -0.033374   0.251797  -0.006387   0.000012
    12  H   -0.000073  -0.007506  -0.053525   0.002806   0.388599  -0.039684
    13  H   -0.000074   0.006127  -0.044105   0.003777   0.398451  -0.028440
    14  H    0.000001  -0.000235   0.003756  -0.000097  -0.021052   0.257470
               7          8          9         10         11         12
     1  O    0.261462  -0.032171  -0.044698  -0.000287   0.000492  -0.000073
     2  C   -0.021193   0.391406   0.391972  -0.037855  -0.005630  -0.007506
     3  C    0.004157  -0.047904  -0.044963   0.394262  -0.033374  -0.053525
     4  O    0.000132   0.003593  -0.004964  -0.032299   0.251797   0.002806
     5  C   -0.000199   0.002549  -0.002717  -0.041016  -0.006387   0.388599
     6  O    0.000001   0.003032   0.000207   0.004526   0.000012  -0.039684
     7  H    0.321358   0.002026  -0.011762  -0.000228  -0.000109  -0.000005
     8  H    0.002026   0.524863  -0.032721  -0.000229   0.000159   0.000519
     9  H   -0.011762  -0.032721   0.635442   0.004802   0.006797   0.003550
    10  H   -0.000228  -0.000229   0.004802   0.509235   0.006126   0.004770
    11  H   -0.000109   0.000159   0.006797   0.006126   0.355656   0.006844
    12  H   -0.000005   0.000519   0.003550   0.004770   0.006844   0.606679
    13  H    0.000005  -0.000126  -0.000154  -0.006114  -0.000719  -0.040067
    14  H    0.000000  -0.000007  -0.000016   0.000012  -0.000002   0.002829
              13         14
     1  O   -0.000074   0.000001
     2  C    0.006127  -0.000235
     3  C   -0.044105   0.003756
     4  O    0.003777  -0.000097
     5  C    0.398451  -0.021052
     6  O   -0.028440   0.257470
     7  H    0.000005   0.000000
     8  H   -0.000126  -0.000007
     9  H   -0.000154  -0.000016
    10  H   -0.006114   0.000012
    11  H   -0.000719  -0.000002
    12  H   -0.040067   0.002829
    13  H    0.560697  -0.010479
    14  H   -0.010479   0.319798
 Mulliken charges:
               1
     1  O   -0.742860
     2  C    0.015644
     3  C    0.140587
     4  O   -0.726246
     5  C   -0.022972
     6  O   -0.738883
     7  H    0.444354
     8  H    0.185010
     9  H    0.099226
    10  H    0.194295
    11  H    0.418338
    12  H    0.124265
    13  H    0.161222
    14  H    0.448022
 Sum of Mulliken charges =   0.00000
 Mulliken charges with hydrogens summed into heavy atoms:
               1
     1  O   -0.298507
     2  C    0.299880
     3  C    0.334882
     4  O   -0.307909
     5  C    0.262515
     6  O   -0.290861
 Electronic spatial extent (au):  <R**2>=            664.4335
 Charge=              0.0000 electrons
 Dipole moment (field-independent basis, Debye):
    X=              1.7358    Y=              0.3159    Z=              2.2472  Tot=              2.8571
 Quadrupole moment (field-independent basis, Debye-Ang):
   XX=            -29.8078   YY=            -41.4064   ZZ=            -34.1680
   XY=              3.3099   XZ=             -7.8556   YZ=              1.8489
 Traceless Quadrupole moment (field-independent basis, Debye-Ang):
   XX=              5.3196   YY=             -6.2790   ZZ=              0.9594
   XY=              3.3099   XZ=             -7.8556   YZ=              1.8489
 Octapole moment (field-independent basis, Debye-Ang**2):
  XXX=             11.4667  YYY=             -3.6491  ZZZ=             -0.1969  XYY=             -0.4686
  XXY=              0.5937  XXZ=              4.2534  XZZ=             -1.1972  YZZ=              3.5429
  YYZ=              5.1957  XYZ=              2.2524
 Hexadecapole moment (field-independent basis, Debye-Ang**3):
 XXXX=           -338.1800 YYYY=           -218.0209 ZZZZ=            -67.9983 XXXY=             -2.9796
 XXXZ=            -59.0805 YYYX=              0.8162 YYYZ=              9.4808 ZZZX=             -5.1138
 ZZZY=              4.5334 XXYY=           -126.2468 XXZZ=            -90.4361 YYZZ=            -42.8369
 XXYZ=             -1.6631 YYXZ=             -7.6060 ZZXY=             -3.2104
 N-N= 2.637529026534D+02 E-N=-1.335679876673D+03  KE= 3.419847936596D+02
 No NMR shielding tensors so no spin-rotation constants.
 Leave Link  601 at Wed Sep 20 14:32:18 2023, MaxMem=    33554432 cpu:         0.1
 (Enter /mnt/storage/apps/eb/software/gaussian/09/l701.exe)
 Compute integral first derivatives.
 ... and contract with generalized density number  0.
 Leave Link  701 at Wed Sep 20 14:32:18 2023, MaxMem=    33554432 cpu:         0.1
 (Enter /mnt/storage/apps/eb/software/gaussian/09/l702.exe)
 L702 exits ... SP integral derivatives will be done elsewhere.
 Leave Link  702 at Wed Sep 20 14:32:18 2023, MaxMem=    33554432 cpu:         0.0
 (Enter /mnt/storage/apps/eb/software/gaussian/09/l703.exe)
 Compute integral first derivatives, UseDBF=F ICtDFT=           0.
 Integral derivatives from FoFJK, PRISM(SPDF).
 Calling FoFJK, ICntrl=      2127 FMM=F ISym2X=0 I1Cent= 0 IOpClX= 0 NMat=1 NMatS=1 NMatT=0.
 FoFJK:  IHMeth= 1 ICntrl=    2127 DoSepK=F KAlg= 0 I1Cent=   0 FoldK=F
 IRaf=         0 NMat=   1 IRICut=       1 DoRegI=T DoRafI=F ISym2E= 0.
 FoFCou: FMM=F IPFlag=           0 FMFlag=      100000 FMFlg1=         800
         NFxFlg=           0 DoJE=F BraDBF=F KetDBF=F FulRan=T
         wScrn=  0.000000 ICntrl=    2127 IOpCl=  0 I1Cent=           0 NGrid=           0
         NMat0=    1 NMatS0=      1 NMatT0=    0 NMatD0=    1 NMtDS0=    0 NMtDT0=    0
 Symmetry not used in FoFCou.
 Leave Link  703 at Wed Sep 20 14:32:19 2023, MaxMem=    33554432 cpu:         1.4
 (Enter /mnt/storage/apps/eb/software/gaussian/09/l716.exe)
 Dipole        = 6.82931733D-01 1.24294831D-01 8.84122549D-01
 ***** Axes restored to original set *****
 -------------------------------------------------------------------
 Center     Atomic                   Forces (Hartrees/Bohr)
 Number     Number              X              Y              Z
 -------------------------------------------------------------------
      1        8           0.034969827    0.001316524    0.007224632
      2        6           0.025828774   -0.027327337   -0.010754434
      3        6          -0.005914877    0.000183499   -0.002862509
      4        8           0.005393894   -0.052895923   -0.013292766
      5        6          -0.017560826   -0.008277519   -0.019949746
      6        8          -0.048088287    0.008380298   -0.002874748
      7        1          -0.034998000    0.014073274    0.007692874
      8        1           0.002156303    0.005198888   -0.003717272
      9        1          -0.016031134    0.011824159    0.013216064
     10        1           0.007996412   -0.010433670    0.000417694
     11        1          -0.007204506    0.056381986   -0.002190408
     12        1          -0.001785406    0.017587004    0.006097888
     13        1           0.009988793   -0.007106188    0.014058085
     14        1           0.045249031   -0.008904995    0.006934645
 -------------------------------------------------------------------
 Cartesian Forces:  Max     0.056381986 RMS     0.020353632
 Leave Link  716 at Wed Sep 20 14:32:19 2023, MaxMem=    33554432 cpu:         0.0
 (Enter /mnt/storage/apps/eb/software/gaussian/09/l103.exe)

 GradGradGradGradGradGradGradGradGradGradGradGradGradGradGradGradGradGrad
 Berny optimization.
 FormGI is forming the generalized inverse of G from B-inverse, IUseBI=4.
 Internal  Forces:  Max     0.056291009 RMS     0.012973900
 Search for a local minimum.
 Step number   1 out of a maximum of  100
 All quantities printed in internal units (Hartrees-Bohrs-Radians)
 RMS Force = .12974D-01 SwitMx=.10000D-02 MixMth= 1
 Mixed Optimization -- RFO/linear search
 Second derivative matrix not updated -- first step.
 ITU=  0
     Eigenvalues ---    0.00611   0.00725   0.01708   0.01729   0.01736
     Eigenvalues ---    0.04328   0.05103   0.05142   0.05346   0.06214
     Eigenvalues ---    0.06398   0.07796   0.11317   0.11428   0.13728
     Eigenvalues ---    0.13917   0.16000   0.16000   0.16000   0.16562
     Eigenvalues ---    0.19339   0.21968   0.21999   0.31142   0.31177
     Eigenvalues ---    0.31574   0.32058   0.32130   0.33847   0.34975
     Eigenvalues ---    0.45828   0.45997   0.46092   0.46183   0.49142
     Eigenvalues ---    0.51550
 RFO step:  Lambda=-3.19812807D-02 EMin= 6.10741065D-03
 Linear search not attempted -- first point.
 Iteration  1 RMS(Cart)=  0.10536380 RMS(Int)=  0.00443798
 Iteration  2 RMS(Cart)=  0.00637477 RMS(Int)=  0.00119629
 Iteration  3 RMS(Cart)=  0.00002073 RMS(Int)=  0.00119616
 Iteration  4 RMS(Cart)=  0.00000001 RMS(Int)=  0.00119616
 ITry= 1 IFail=0 DXMaxC= 4.11D-01 DCOld= 1.00D+10 DXMaxT= 3.00D-01 DXLimC= 3.00D+00 Rises=F
 Variable       Old X    -DE/DX   Delta X   Delta X   Delta X     New X
                                 (Linear)    (Quad)   (Total)
    R1        2.63926   0.00665   0.00000   0.01347   0.01347   2.65273
    R2        1.85033  -0.03806   0.00000  -0.06952  -0.06952   1.78081
    R3        2.84037   0.01573   0.00000   0.04462   0.04462   2.88499
    R4        2.05716  -0.00444   0.00000  -0.01163  -0.01163   2.04553
    R5        2.12442  -0.01934   0.00000  -0.05631  -0.05631   2.06812
    R6        2.64326   0.01338   0.00000   0.02729   0.02729   2.67055
    R7        2.85676   0.00938   0.00000   0.02729   0.02729   2.88405
    R8        2.07590  -0.01202   0.00000  -0.03245  -0.03245   2.04344
    R9        1.90834  -0.05629   0.00000  -0.11442  -0.11442   1.79392
   R10        2.64028   0.00481   0.00000   0.00976   0.00976   2.65004
   R11        2.11630  -0.01848   0.00000  -0.05315  -0.05315   2.06314
   R12        2.10607  -0.01851   0.00000  -0.05240  -0.05240   2.05367
   R13        1.87441  -0.04654   0.00000  -0.08891  -0.08891   1.78550
    A1        1.98240  -0.01057   0.00000  -0.05504  -0.05504   1.92736
    A2        1.87155   0.01197   0.00000   0.05022   0.04735   1.91890
    A3        1.98856  -0.01064   0.00000  -0.07936  -0.07890   1.90965
    A4        1.83780   0.00901   0.00000   0.11048   0.10786   1.94567
    A5        2.00266  -0.00610   0.00000  -0.05440  -0.05505   1.94761
    A6        1.85767  -0.00176   0.00000   0.01364   0.00915   1.86682
    A7        1.89428  -0.00077   0.00000  -0.02059  -0.01942   1.87486
    A8        1.86986   0.01190   0.00000   0.08505   0.08458   1.95444
    A9        1.96597  -0.00370   0.00000  -0.00254  -0.00533   1.96064
   A10        1.97010  -0.00587   0.00000  -0.06080  -0.06036   1.90974
   A11        1.87556  -0.00011   0.00000   0.02710   0.02509   1.90066
   A12        1.88061  -0.00494   0.00000  -0.03834  -0.03665   1.84396
   A13        1.89737   0.00294   0.00000  -0.00673  -0.00763   1.88974
   A14        1.82943   0.01560   0.00000   0.08126   0.08126   1.91069
   A15        1.93798  -0.00034   0.00000  -0.00296  -0.00318   1.93480
   A16        1.93375  -0.00266   0.00000  -0.02036  -0.02047   1.91328
   A17        1.85856   0.00374   0.00000   0.02831   0.02833   1.88689
   A18        1.92602  -0.00021   0.00000  -0.01142  -0.01169   1.91433
   A19        1.95562  -0.00091   0.00000   0.00060   0.00047   1.95610
   A20        1.84917   0.00048   0.00000   0.00714   0.00731   1.85648
   A21        1.90005   0.00538   0.00000   0.02801   0.02801   1.92806
    D1       -2.23674  -0.00502   0.00000  -0.06955  -0.07202  -2.30876
    D2        1.81054   0.00127   0.00000   0.02074   0.01916   1.82970
    D3       -0.26317   0.00221   0.00000   0.01757   0.02162  -0.24155
    D4        1.04720   0.00606   0.00000   0.06237   0.06201   1.10921
    D5        3.10596   0.01138   0.00000   0.14820   0.14863  -3.02860
    D6       -1.02013   0.00784   0.00000   0.08973   0.09091  -0.92922
    D7       -3.00829  -0.00282   0.00000  -0.04263  -0.04347  -3.05176
    D8       -0.94952   0.00250   0.00000   0.04320   0.04314  -0.90638
    D9        1.20757  -0.00105   0.00000  -0.01527  -0.01458   1.19299
   D10       -0.91287  -0.00873   0.00000  -0.09198  -0.09311  -1.00598
   D11        1.14589  -0.00341   0.00000  -0.00616  -0.00649   1.13940
   D12       -2.98020  -0.00696   0.00000  -0.06463  -0.06421  -3.04441
   D13        1.08865   0.00150   0.00000   0.03038   0.03178   1.12044
   D14       -1.02817  -0.00067   0.00000  -0.02882  -0.03038  -1.05855
   D15       -3.07000  -0.00150   0.00000  -0.01524  -0.01508  -3.08508
   D16        1.08617  -0.00795   0.00000  -0.08430  -0.08422   1.00195
   D17       -1.06064  -0.00557   0.00000  -0.05323  -0.05329  -1.11393
   D18       -3.06373  -0.00688   0.00000  -0.06717  -0.06703  -3.13075
   D19        3.14157   0.00444   0.00000   0.03583   0.03573  -3.10588
   D20        0.99477   0.00683   0.00000   0.06690   0.06665   1.06142
   D21       -1.00832   0.00552   0.00000   0.05297   0.05292  -0.95541
   D22       -1.11077   0.00010   0.00000   0.00171   0.00182  -1.10895
   D23        3.02561   0.00249   0.00000   0.03278   0.03275   3.05835
   D24        1.02252   0.00118   0.00000   0.01885   0.01901   1.04153
   D25        2.29518   0.00313   0.00000   0.03492   0.03487   2.33005
   D26       -1.83675  -0.00066   0.00000  -0.00118  -0.00113  -1.83788
   D27        0.21933  -0.00077   0.00000   0.00067   0.00067   0.22001
         Item               Value     Threshold  Converged?
 Maximum Force            0.056291     0.000015     NO 
 RMS     Force            0.012974     0.000010     NO 
 Maximum Displacement     0.410942     0.000060     NO 
 RMS     Displacement     0.103412     0.000040     NO 
 Predicted change in Energy=-1.885303D-02
 Lowest energy point so far.  Saving SCF results.
 GradGradGradGradGradGradGradGradGradGradGradGradGradGradGradGradGradGrad

 Leave Link  103 at Wed Sep 20 14:32:19 2023, MaxMem=    33554432 cpu:         0.0
 (Enter /mnt/storage/apps/eb/software/gaussian/09/l202.exe)
                          Input orientation:                          
 ---------------------------------------------------------------------
 Center     Atomic      Atomic             Coordinates (Angstroms)
 Number     Number       Type             X           Y           Z
 ---------------------------------------------------------------------
      1          8           0        2.157306    0.919267    0.638612
      2          6           0        1.066003    0.042755    0.745073
      3          6           0       -0.025876    0.448293   -0.241877
      4          8           0        0.405712    0.337731   -1.583006
      5          6           0       -1.301627   -0.370266   -0.064034
      6          8           0       -1.792533   -0.251794    1.244221
      7          1           0        2.964004    0.435137    0.584696
      8          1           0        0.701856    0.043693    1.764433
      9          1           0        1.352019   -0.984849    0.500247
     10          1           0       -0.270006    1.491996   -0.099082
     11          1           0        0.587867   -0.572243   -1.782856
     12          1           0       -1.098079   -1.419503   -0.286810
     13          1           0       -2.024081   -0.034780   -0.803322
     14          1           0       -2.722564   -0.085436    1.234362
 ---------------------------------------------------------------------
                    Distance matrix (angstroms):
                    1          2          3          4          5
     1  O    0.000000
     2  C    1.403763   0.000000
     3  C    2.400699   1.526673   0.000000
     4  O    2.888227   2.437817   1.413195   0.000000
     5  C    3.757768   2.535924   1.526174   2.392392   0.000000
     6  O    4.164056   2.916699   2.412402   3.629467   1.402339
     7  H    0.942365   1.944760   3.102060   3.354591   4.389206
     8  H    2.037753   1.082450   2.172228   3.373353   2.743829
     9  H    2.072025   1.094401   2.122083   2.642851   2.781719
    10  H    2.600780   2.144252   1.081344   1.997737   2.129199
    11  H    3.248269   2.645234   1.947509   0.949302   2.562290
    12  H    4.113852   2.808243   2.154136   2.651298   1.091769
    13  H    4.524752   3.457190   2.131058   2.578869   1.086756
    14  H    5.017715   3.822181   3.120300   4.231163   1.945770
                    6          7          8          9         10
     6  O    0.000000
     7  H    4.850926   0.000000
     8  H    2.565133   2.581147   0.000000
     9  H    3.313468   2.149881   1.754644   0.000000
    10  H    2.676444   3.470349   2.552408   3.020748   0.000000
    11  H    3.864219   3.502306   3.602171   2.442690   2.798593
    12  H    2.046916   4.549696   3.096499   2.609859   3.032783
    13  H    2.071990   5.198886   3.745699   3.741654   2.429769
    14  H    0.944844   5.747183   3.467607   4.236754   3.206462
                   11         12         13         14
    11  H    0.000000
    12  H    2.407991   0.000000
    13  H    2.840885   1.744054   0.000000
    14  H    4.505501   2.594734   2.154669   0.000000
 Stoichiometry    C3H8O3
 Framework group  C1[X(C3H8O3)]
 Deg. of freedom    36
 Full point group                 C1      NOp   1
 RotChk:  IX=0 Diff= 3.79D-02
 Largest Abelian subgroup         C1      NOp   1
 Largest concise Abelian subgroup C1      NOp   1
                         Standard orientation:                         
 ---------------------------------------------------------------------
 Center     Atomic      Atomic             Coordinates (Angstroms)
 Number     Number       Type             X           Y           Z
 ---------------------------------------------------------------------
      1          8           0       -2.138377   -0.724702   -0.252251
      2          6           0       -0.862029   -0.717395    0.332072
      3          6           0       -0.003740    0.372509   -0.305250
      4          8           0       -0.525448    1.663972   -0.066369
      5          6           0        1.443591    0.327075    0.176806
      6          8           0        2.017395   -0.925756   -0.083421
      7          1           0       -2.804808   -0.750046    0.413541
      8          1           0       -0.410485   -1.695033    0.222389
      9          1           0       -0.912889   -0.498251    1.403100
     10          1           0       -0.007252    0.250607   -1.379695
     11          1           0       -0.500177    1.848307    0.864521
     12          1           0        1.479742    0.532651    1.248436
     13          1           0        1.986708    1.133768   -0.308281
     14          1           0        2.873666   -0.823252   -0.469454
 ---------------------------------------------------------------------
 Rotational constants (GHZ):      5.2853418      2.3945033      1.7714013
 Leave Link  202 at Wed Sep 20 14:32:19 2023, MaxMem=    33554432 cpu:         0.0
 (Enter /mnt/storage/apps/eb/software/gaussian/09/l301.exe)
 Standard basis: 6-31G(d) (6D, 7F)
 Ernie: Thresh=  0.10000D-02 Tol=  0.10000D-05 Strict=F.
 There are   106 symmetry adapted cartesian basis functions of A   symmetry.
 There are   106 symmetry adapted basis functions of A   symmetry.
   106 basis functions,   200 primitive gaussians,   106 cartesian basis functions
    25 alpha electrons       25 beta electrons
       nuclear repulsion energy       261.6578084787 Hartrees.
 IExCor=    0 DFT=F Ex=HF Corr=None ExCW=0 ScaHFX=  1.000000
 ScaDFX=  1.000000  1.000000  1.000000  1.000000 ScalE2=  1.000000  1.000000
 IRadAn=      0 IRanWt=     -1 IRanGd=            0 ICorTp=0 IEmpDi=  4
 NAtoms=   14 NActive=   14 NUniq=   14 SFac= 1.00D+00 NAtFMM=   60 NAOKFM=F Big=F
 Integral buffers will be    131072 words long.
 Raffenetti 1 integral format.
 Two-electron integral symmetry is turned on.
 Leave Link  301 at Wed Sep 20 14:32:19 2023, MaxMem=    33554432 cpu:         0.0
 (Enter /mnt/storage/apps/eb/software/gaussian/09/l302.exe)
 NPDir=0 NMtPBC=     1 NCelOv=     1 NCel=       1 NClECP=     1 NCelD=      1
         NCelK=      1 NCelE2=     1 NClLst=     1 CellRange=     0.0.
 One-electron integrals computed using PRISM.
 NBasis=   106 RedAO= T EigKep=  3.32D-03  NBF=   106
 NBsUse=   106 1.00D-06 EigRej= -1.00D+00 NBFU=   106
 Leave Link  302 at Wed Sep 20 14:32:19 2023, MaxMem=    33554432 cpu:         0.1
 (Enter /mnt/storage/apps/eb/software/gaussian/09/l303.exe)
 DipDrv:  MaxL=1.
 Leave Link  303 at Wed Sep 20 14:32:19 2023, MaxMem=    33554432 cpu:         0.0
 (Enter /mnt/storage/apps/eb/software/gaussian/09/l401.exe)
 Initial guess from the checkpoint file:  "/scratch/nca121/18446470/Gau-3934.chk"
 B after Tr=     0.000000    0.000000    0.000000
         Rot=    0.999908    0.002902   -0.002594    0.012985 Ang=   1.55 deg.
 Guess basis will be translated and rotated to current coordinates.
 JPrj=2 DoOrth=T DoCkMO=T.
 Generating alternative initial guess.
 ExpMin= 1.61D-01 ExpMax= 5.48D+03 ExpMxC= 8.25D+02 IAcc=1 IRadAn=         1 AccDes= 0.00D+00
 Harris functional with IExCor=  205 and IRadAn=       1 diagonalized for initial guess.
 HarFok:  IExCor=  205 AccDes= 0.00D+00 IRadAn=         1 IDoV= 1 UseB2=F ITyADJ=14
 ICtDFT=  3500011 ScaDFX=  1.000000  1.000000  1.000000  1.000000
 FoFCou: FMM=F IPFlag=           0 FMFlag=      100000 FMFlg1=           0
         NFxFlg=           0 DoJE=T BraDBF=F KetDBF=T FulRan=T
         wScrn=  0.000000 ICntrl=     500 IOpCl=  0 I1Cent=   200000004 NGrid=           0
         NMat0=    1 NMatS0=      1 NMatT0=    0 NMatD0=    1 NMtDS0=    0 NMtDT0=    0
 Petite list used in FoFCou.
 Harris En= -343.194283121085    
 Leave Link  401 at Wed Sep 20 14:32:20 2023, MaxMem=    33554432 cpu:         0.3
 (Enter /mnt/storage/apps/eb/software/gaussian/09/l508.exe)
 Direct SCF.
 Tight linear equation convergence will be used.
 RHF wavefunction.
 Quadratic Convergence SCF Method.
 Line search only if initial step raises energy.
 Integral symmetry usage will be decided dynamically.
 ReadGW:  IGet=1 IStart=         402 Next=         402 LGW=           0.
 Keep R1 ints in memory in canonical form, NReq=17056326.
 FoFCou: FMM=F IPFlag=           0 FMFlag=           0 FMFlg1=           0
         NFxFlg=           0 DoJE=F BraDBF=F KetDBF=F FulRan=T
         wScrn=  0.000000 ICntrl=     600 IOpCl=  0 I1Cent=           0 NGrid=           0
         NMat0=    1 NMatS0=   5671 NMatT0=    0 NMatD0=    1 NMtDS0=    0 NMtDT0=    0
 Symmetry not used in FoFCou.
 Iteration   1 EE= -342.786442111827                                    Grad=1.447D-01 Max rot=    0.6471 deg.
 Gradient too large for Newton-Raphson -- use scaled steepest descent instead.
 Alpha Gap=     1.962 HL deriv= 1.32D-03
     ILin= 1 X=0.000D+00 Y=-3.427864421118D+02 DE= 0.00D+00 F= -1.75D-02
     ILin= 2 X=3.000D-01 Y=-3.427910752128D+02 DE=-4.63D-03 F= -1.34D-02
     ILin= 3 X=6.000D-01 Y=-3.427944902525D+02 DE=-8.05D-03 F= -9.35D-03
     ILin= 4 X=1.200D+00 Y=-3.427976676670D+02 DE=-1.12D-02 F= -1.24D-03
     Reject lnstep minimum 1.480D+00 FVal=-3.427980870280D+02 Lims=  6.00D-01  1.20D+00
     ILin= 5 X=2.400D+00 Y=-3.427894271002D+02 DE=-2.98D-03 F=  1.50D-02
     An  expanding polynomial of degree  5 produced  1.2916
     Minimum is close to point  4 DX=  9.16D-02 DF= -5.68D-05 DXR=  7.09D-02 DFR=  5.06D-03 which will be used.
 Iteration   2 EE= -342.797667666995     Delta-E=       -0.011225555168 Grad=7.202D-02 Max rot=    0.3405 deg.
 Gradient too large for Newton-Raphson -- use scaled steepest descent instead.
 Alpha Gap=     1.961 HL deriv= 6.47D-04
     ILin= 1 X=0.000D+00 Y=-3.427976676670D+02 DE= 0.00D+00 F= -4.31D-03
     ILin= 2 X=6.000D-01 Y=-3.427995177393D+02 DE=-1.85D-03 F= -1.86D-03
     ILin= 3 X=1.200D+00 Y=-3.427998960175D+02 DE=-2.23D-03 F=  5.97D-04
     Accept linear search using points  2 and  3.
     An  expanding polynomial of degree  3 produced  0.9687
 Iteration   3 EE= -342.799924559841     Delta-E=       -0.002256892846 Grad=4.305D-02 Max rot=    0.1949 deg.
 Gradient too large for Newton-Raphson -- use scaled steepest descent instead.
 Alpha Gap=     1.962 HL deriv= 8.82D-04
     ILin= 1 X=0.000D+00 Y=-3.427999245598D+02 DE= 0.00D+00 F= -1.63D-03
     ILin= 2 X=1.100D+00 Y=-3.428007409445D+02 DE=-8.16D-04 F=  1.46D-04
     Accept linear search using points  1 and  2.
     An  expanding polynomial of degree  2 produced  1.0273
     Minimum is close to point  2 DX= -7.27D-02 DF= -4.80D-06 DXR=  7.08D-02 DFR=  5.88D-03 which will be used.
 Iteration   4 EE= -342.800740944468     Delta-E=       -0.000816384627 Grad=3.781D-02 Max rot=    0.1749 deg.
 Gradient too large for Newton-Raphson -- use scaled steepest descent instead.
 Alpha Gap=     1.962 HL deriv= 3.99D-04
     ILin= 1 X=0.000D+00 Y=-3.428007409445D+02 DE= 0.00D+00 F= -1.20D-03
     ILin= 2 X=1.000D+00 Y=-3.428010816781D+02 DE=-3.41D-04 F=  5.18D-04
     Accept linear search using points  1 and  2.
     An  expanding polynomial of degree  2 produced  0.6984
 Iteration   5 EE= -342.801159773429     Delta-E=       -0.000418828961 Grad=2.019D-02 Max rot=    0.1199 deg.
 Gradient too large for Newton-Raphson -- use scaled steepest descent instead.
 Alpha Gap=     1.962 HL deriv= 3.67D-04
     ILin= 1 X=0.000D+00 Y=-3.428011597734D+02 DE= 0.00D+00 F= -3.69D-04
     ILin= 2 X=8.000D-01 Y=-3.428013490593D+02 DE=-1.89D-04 F= -1.05D-04
     Reject lnstep minimum 1.831D+00 FVal=-3.428014547402D+02 Lims=  0.00D+00  8.00D-01
     ILin= 3 X=1.700D+00 Y=-3.428013094230D+02 DE=-1.50D-04 F=  1.93D-04
     An  expanding polynomial of degree  3 produced  1.1166
 Iteration   6 EE= -342.801365607789     Delta-E=       -0.000205834359 Grad=1.953D-02 Max rot=    0.1104 deg.
 Gradient too large for Newton-Raphson -- use scaled steepest descent instead.
 Alpha Gap=     1.962 HL deriv= 9.30D-05
     ILin= 1 X=0.000D+00 Y=-3.428013656078D+02 DE= 0.00D+00 F= -3.27D-04
     ILin= 2 X=9.000D-01 Y=-3.428014676526D+02 DE=-1.02D-04 F=  9.99D-05
     Accept linear search using points  1 and  2.
     An  expanding polynomial of degree  2 produced  0.6616
 Iteration   7 EE= -342.801478007965     Delta-E=       -0.000112400176 Grad=1.080D-02 Max rot=    0.0723 deg.
 Gradient too large for Newton-Raphson -- use scaled steepest descent instead.
 Alpha Gap=     1.962 HL deriv= 2.11D-04
     ILin= 1 X=0.000D+00 Y=-3.428014780080D+02 DE= 0.00D+00 F= -1.06D-04
     ILin= 2 X=9.000D-01 Y=-3.428015397206D+02 DE=-6.17D-05 F= -3.07D-05
     Reject lnstep minimum 3.169D+00 FVal=-3.428015763933D+02 Lims=  0.00D+00  9.00D-01
     ILin= 3 X=1.700D+00 Y=-3.428015373608D+02 DE=-5.94D-05 F=  3.66D-05
     An  expanding polynomial of degree  3 produced  1.2649
 Iteration   8 EE= -342.801545323519     Delta-E=       -0.000067315554 Grad=1.165D-02 Max rot=    0.0713 deg.
 Gradient too large for Newton-Raphson -- use scaled steepest descent instead.
 Alpha Gap=     1.962 HL deriv= 4.02D-05
     ILin= 1 X=0.000D+00 Y=-3.428015453235D+02 DE= 0.00D+00 F= -1.18D-04
     ILin= 2 X=9.000D-01 Y=-3.428015760842D+02 DE=-3.08D-05 F=  4.95D-05
     Accept linear search using points  1 and  2.
     An  expanding polynomial of degree  2 produced  0.6099
 Iteration   9 EE= -342.801582620910     Delta-E=       -0.000037297391 Grad=5.856D-03 Max rot=    0.0406 deg.
 QCNR:  CnvC1=6.36D-09 CnvC2=6.36D-08
 LinEq1:  Iter=  0 NonCon=     1 RMS=9.54D-05 Max=9.96D-04 NDo=     1
 AX will form     1 AO Fock derivatives at one time.
 LinEq1:  Iter=  1 NonCon=     1 RMS=1.07D-05 Max=7.90D-05 NDo=     1
 LinEq1:  Iter=  2 NonCon=     1 RMS=3.94D-06 Max=2.37D-05 NDo=     1
 LinEq1:  Iter=  3 NonCon=     1 RMS=1.02D-06 Max=7.36D-06 NDo=     1
 LinEq1:  Iter=  4 NonCon=     1 RMS=3.86D-07 Max=2.71D-06 NDo=     1
 LinEq1:  Iter=  5 NonCon=     1 RMS=9.05D-08 Max=6.68D-07 NDo=     1
 LinEq1:  Iter=  6 NonCon=     1 RMS=1.94D-08 Max=1.40D-07 NDo=     1
 LinEq1:  Iter=  7 NonCon=     0 RMS=6.36D-09 Max=4.21D-08 NDo=     1
 Linear equations converged to 6.364D-09 6.364D-08 after     7 iterations.
 Angle between quadratic step and gradient=  27.10 degrees.
     ILin= 1 X=0.000D+00 Y=-3.428015826209D+02 DE= 0.00D+00 F= -1.03D-04
     ILin= 2 X=1.000D+00 Y=-3.428016343141D+02 DE=-5.17D-05 F= -4.09D-08
     Reject lnstep minimum 1.000D+00 FVal=-3.428016343141D+02 Lims=  0.00D+00  1.00D+00
     ILin= 3 X=2.000D+00 Y=-3.428015827291D+02 DE=-1.08D-07 F=  1.03D-04
     An  expanding polynomial of degree  3 produced  1.0005
     Minimum is close to point  2 DX=  5.24D-04 DF= -1.42D-11 DXR=  5.24D-04 DFR=  2.75D-07 which will be used.
 Iteration  10 EE= -342.801634314120     Delta-E=       -0.000051693210 Grad=1.269D-05 Max rot=    0.0001 deg.
 QCNR:  CnvC1=1.27D-10 CnvC2=1.27D-09
 LinEq1:  Iter=  0 NonCon=     1 RMS=1.40D-07 Max=8.71D-07 NDo=     1
 LinEq1:  Iter=  1 NonCon=     1 RMS=4.72D-08 Max=4.09D-07 NDo=     1
 LinEq1:  Iter=  2 NonCon=     1 RMS=1.18D-08 Max=9.42D-08 NDo=     1
 LinEq1:  Iter=  3 NonCon=     1 RMS=3.75D-09 Max=4.17D-08 NDo=     1
 LinEq1:  Iter=  4 NonCon=     1 RMS=8.30D-10 Max=8.55D-09 NDo=     1
 LinEq1:  Iter=  5 NonCon=     1 RMS=2.24D-10 Max=1.91D-09 NDo=     1
 LinEq1:  Iter=  6 NonCon=     0 RMS=7.63D-11 Max=4.97D-10 NDo=     1
 Linear equations converged to 1.269D-10 1.269D-09 after     6 iterations.
 Angle between quadratic step and gradient=  38.85 degrees.
     ILin= 1 X=0.000D+00 Y=-3.428016343141D+02 DE= 0.00D+00 F= -1.62D-10
     ILin= 2 X=1.000D+00 Y=-3.428016343142D+02 DE=-7.83D-11
 Iteration  11 EE= -342.801634314199     Delta-E=       -0.000000000078 Grad=9.667D-09 Max rot=    0.0000 deg.
 Rotation gradient small -- convergence achieved.
 SCF Done:  E(RHF) =  -342.801634314     a.u. after   11 cycles
            Convg  =    0.9667D-08                    37 Fock formations.
              S**2 =  0.0000                  -V/T =  2.0017
 Leave Link  508 at Wed Sep 20 14:32:21 2023, MaxMem=    33554432 cpu:         1.6
 (Enter /mnt/storage/apps/eb/software/gaussian/09/l701.exe)
 Compute integral first derivatives.
 ... and contract with generalized density number  0.
 Leave Link  701 at Wed Sep 20 14:32:21 2023, MaxMem=    33554432 cpu:         0.1
 (Enter /mnt/storage/apps/eb/software/gaussian/09/l702.exe)
 L702 exits ... SP integral derivatives will be done elsewhere.
 Leave Link  702 at Wed Sep 20 14:32:21 2023, MaxMem=    33554432 cpu:         0.0
 (Enter /mnt/storage/apps/eb/software/gaussian/09/l703.exe)
 Compute integral first derivatives, UseDBF=F ICtDFT=           0.
 Integral derivatives from FoFJK, PRISM(SPDF).
 Calling FoFJK, ICntrl=      2127 FMM=F ISym2X=0 I1Cent= 0 IOpClX= 0 NMat=1 NMatS=1 NMatT=0.
 FoFJK:  IHMeth= 1 ICntrl=    2127 DoSepK=F KAlg= 0 I1Cent=   0 FoldK=F
 IRaf=         0 NMat=   1 IRICut=       1 DoRegI=T DoRafI=F ISym2E= 0.
 FoFCou: FMM=F IPFlag=           0 FMFlag=      100000 FMFlg1=         800
         NFxFlg=           0 DoJE=F BraDBF=F KetDBF=F FulRan=T
         wScrn=  0.000000 ICntrl=    2127 IOpCl=  0 I1Cent=           0 NGrid=           0
         NMat0=    1 NMatS0=      1 NMatT0=    0 NMatD0=    1 NMtDS0=    0 NMtDT0=    0
 Symmetry not used in FoFCou.
 Leave Link  703 at Wed Sep 20 14:32:23 2023, MaxMem=    33554432 cpu:         1.4
 (Enter /mnt/storage/apps/eb/software/gaussian/09/l716.exe)
 Dipole        = 7.02851023D-01 1.16728970D-01 9.51295163D-01
 ***** Axes restored to original set *****
 -------------------------------------------------------------------
 Center     Atomic                   Forces (Hartrees/Bohr)
 Number     Number              X              Y              Z
 -------------------------------------------------------------------
      1        8          -0.003027481    0.000750968   -0.000821433
      2        6           0.001145513   -0.003633362   -0.005666847
      3        6          -0.000643339    0.000017816   -0.001253401
      4        8          -0.001809097   -0.000868287    0.006483238
      5        6          -0.000388943   -0.002424332   -0.003649885
      6        8           0.000693072    0.001418140    0.000338858
      7        1           0.001942623   -0.001040680   -0.000160285
      8        1          -0.003759944    0.000486979   -0.001220090
      9        1           0.001809195    0.002337369    0.002037271
     10        1           0.002335673    0.000624486    0.000577235
     11        1           0.000877634    0.001267591    0.000359389
     12        1           0.000398329    0.000463423    0.001330615
     13        1           0.000530301    0.001121472    0.001772925
     14        1          -0.000103537   -0.000521584   -0.000127590
 -------------------------------------------------------------------
 Cartesian Forces:  Max     0.006483238 RMS     0.002049822
 Leave Link  716 at Wed Sep 20 14:32:23 2023, MaxMem=    33554432 cpu:         0.0
 (Enter /mnt/storage/apps/eb/software/gaussian/09/l103.exe)

 GradGradGradGradGradGradGradGradGradGradGradGradGradGradGradGradGradGrad
 Berny optimization.
 Using GEDIIS/GDIIS optimizer.
 FormGI is forming the generalized inverse of G from B-inverse, IUseBI=4.
 Internal  Forces:  Max     0.006809397 RMS     0.001665254
 Search for a local minimum.
 Step number   2 out of a maximum of  100
 All quantities printed in internal units (Hartrees-Bohrs-Radians)
 RMS Force = .16653D-02 SwitMx=.10000D-02 MixMth= 1
 Mixed Optimization -- RFO/linear search
 Update second derivatives using D2CorX and points    1    2
 DE= -1.60D-02 DEPred=-1.89D-02 R= 8.50D-01
 TightC=F SS=  1.41D+00  RLast= 4.15D-01 DXNew= 5.0454D-01 1.2463D+00
 Trust test= 8.50D-01 RLast= 4.15D-01 DXMaxT set to 5.05D-01
 ITU=  1  0
 Use linear search instead of GDIIS.
     Eigenvalues ---    0.00611   0.00727   0.01707   0.01729   0.01737
     Eigenvalues ---    0.04584   0.04985   0.05165   0.05684   0.06151
     Eigenvalues ---    0.06560   0.07640   0.11347   0.11440   0.13850
     Eigenvalues ---    0.14048   0.15997   0.16000   0.16218   0.17323
     Eigenvalues ---    0.20100   0.21965   0.22286   0.30728   0.31212
     Eigenvalues ---    0.31492   0.31994   0.32689   0.33888   0.34980
     Eigenvalues ---    0.44347   0.46091   0.46170   0.46967   0.49086
     Eigenvalues ---    0.51980
 RFO step:  Lambda=-1.04458970D-03 EMin= 6.10739074D-03
 Quartic linear search produced a step of -0.00163.
 Iteration  1 RMS(Cart)=  0.02363721 RMS(Int)=  0.00037407
 Iteration  2 RMS(Cart)=  0.00041248 RMS(Int)=  0.00011881
 Iteration  3 RMS(Cart)=  0.00000007 RMS(Int)=  0.00011881
 ITry= 1 IFail=0 DXMaxC= 8.01D-02 DCOld= 1.00D+10 DXMaxT= 5.05D-01 DXLimC= 3.00D+00 Rises=F
 Variable       Old X    -DE/DX   Delta X   Delta X   Delta X     New X
                                 (Linear)    (Quad)   (Total)
    R1        2.65273  -0.00095  -0.00002  -0.00176  -0.00178   2.65094
    R2        1.78081   0.00221   0.00011   0.00279   0.00290   1.78371
    R3        2.88499  -0.00483  -0.00007  -0.01404  -0.01411   2.87088
    R4        2.04553   0.00012   0.00002   0.00008   0.00010   2.04564
    R5        2.06812  -0.00218   0.00009  -0.00816  -0.00807   2.06005
    R6        2.67055  -0.00681  -0.00004  -0.01422  -0.01426   2.65629
    R7        2.88405  -0.00101  -0.00004  -0.00265  -0.00270   2.88135
    R8        2.04344   0.00015   0.00005  -0.00025  -0.00019   2.04325
    R9        1.79392  -0.00112   0.00019  -0.00487  -0.00468   1.78924
   R10        2.65004   0.00007  -0.00002   0.00035   0.00034   2.65037
   R11        2.06314  -0.00064   0.00009  -0.00316  -0.00307   2.06007
   R12        2.05367  -0.00121   0.00009  -0.00487  -0.00479   2.04888
   R13        1.78550   0.00001   0.00015  -0.00187  -0.00172   1.78377
    A1        1.92736   0.00019   0.00009   0.00003   0.00012   1.92747
    A2        1.91890  -0.00165  -0.00008  -0.00749  -0.00781   1.91109
    A3        1.90965   0.00302   0.00013   0.01056   0.01020   1.91985
    A4        1.94567  -0.00131  -0.00018  -0.00123  -0.00151   1.94416
    A5        1.94761  -0.00456   0.00009  -0.04049  -0.04036   1.90725
    A6        1.86682   0.00435  -0.00001   0.03480   0.03496   1.90178
    A7        1.87486   0.00010   0.00003   0.00387   0.00428   1.87914
    A8        1.95444  -0.00105  -0.00014  -0.00655  -0.00671   1.94773
    A9        1.96064  -0.00025   0.00001  -0.00110  -0.00105   1.95959
   A10        1.90974  -0.00074   0.00010  -0.01401  -0.01393   1.89581
   A11        1.90066   0.00124  -0.00004   0.00994   0.00988   1.91053
   A12        1.84396   0.00002   0.00006  -0.00032  -0.00044   1.84352
   A13        1.88974   0.00086   0.00001   0.01277   0.01275   1.90250
   A14        1.91069   0.00038  -0.00013   0.00412   0.00399   1.91468
   A15        1.93480  -0.00173   0.00001  -0.01131  -0.01134   1.92346
   A16        1.91328   0.00035   0.00003   0.00233   0.00233   1.91562
   A17        1.88689   0.00031  -0.00005   0.00131   0.00120   1.88809
   A18        1.91433   0.00032   0.00002  -0.00142  -0.00141   1.91292
   A19        1.95610   0.00003   0.00000  -0.00588  -0.00592   1.95018
   A20        1.85648   0.00084  -0.00001   0.01623   0.01619   1.87267
   A21        1.92806  -0.00025  -0.00005  -0.00095  -0.00099   1.92707
    D1       -2.30876  -0.00276   0.00012  -0.02813  -0.02808  -2.33684
    D2        1.82970   0.00203  -0.00003   0.02036   0.02044   1.85015
    D3       -0.24155   0.00077  -0.00004   0.00955   0.00947  -0.23209
    D4        1.10921  -0.00020  -0.00010   0.03066   0.03047   1.13968
    D5       -3.02860   0.00045  -0.00024   0.03798   0.03762  -2.99098
    D6       -0.92922   0.00087  -0.00015   0.04381   0.04352  -0.88570
    D7       -3.05176  -0.00057   0.00007   0.01178   0.01214  -3.03962
    D8       -0.90638   0.00009  -0.00007   0.01910   0.01929  -0.88709
    D9        1.19299   0.00051   0.00002   0.02494   0.02519   1.21819
   D10       -1.00598  -0.00032   0.00015   0.01527   0.01531  -0.99067
   D11        1.13940   0.00034   0.00001   0.02259   0.02246   1.16186
   D12       -3.04441   0.00076   0.00010   0.02843   0.02837  -3.01605
   D13        1.12044  -0.00018  -0.00005  -0.02680  -0.02687   1.09357
   D14       -1.05855  -0.00003   0.00005  -0.02808  -0.02802  -1.08657
   D15       -3.08508  -0.00164   0.00002  -0.04750  -0.04747  -3.13255
   D16        1.00195   0.00019   0.00014   0.00317   0.00330   1.00525
   D17       -1.11393   0.00068   0.00009   0.01073   0.01082  -1.10311
   D18       -3.13075  -0.00067   0.00011  -0.01052  -0.01042  -3.14117
   D19       -3.10588  -0.00043  -0.00006   0.00128   0.00119  -3.10469
   D20        1.06142   0.00006  -0.00011   0.00884   0.00871   1.07013
   D21       -0.95541  -0.00129  -0.00009  -0.01241  -0.01252  -0.96793
   D22       -1.10895   0.00069   0.00000   0.01277   0.01279  -1.09616
   D23        3.05835   0.00118  -0.00005   0.02032   0.02031   3.07867
   D24        1.04153  -0.00017  -0.00003  -0.00092  -0.00092   1.04060
   D25        2.33005   0.00019  -0.00006   0.01467   0.01463   2.34468
   D26       -1.83788  -0.00029   0.00000   0.00932   0.00934  -1.82854
   D27        0.22001   0.00099   0.00000   0.02495   0.02490   0.24491
         Item               Value     Threshold  Converged?
 Maximum Force            0.006809     0.000015     NO 
 RMS     Force            0.001665     0.000010     NO 
 Maximum Displacement     0.080137     0.000060     NO 
 RMS     Displacement     0.023707     0.000040     NO 
 Predicted change in Energy=-5.310940D-04
 Lowest energy point so far.  Saving SCF results.
 GradGradGradGradGradGradGradGradGradGradGradGradGradGradGradGradGradGrad

 Leave Link  103 at Wed Sep 20 14:32:23 2023, MaxMem=    33554432 cpu:         0.0
 (Enter /mnt/storage/apps/eb/software/gaussian/09/l202.exe)
                          Input orientation:                          
 ---------------------------------------------------------------------
 Center     Atomic      Atomic             Coordinates (Angstroms)
 Number     Number       Type             X           Y           Z
 ---------------------------------------------------------------------
      1          8           0        2.133568    0.927199    0.642420
      2          6           0        1.062593    0.025061    0.726441
      3          6           0       -0.026044    0.438094   -0.249393
      4          8           0        0.406775    0.332174   -1.582544
      5          6           0       -1.305180   -0.370942   -0.064660
      6          8           0       -1.777515   -0.237135    1.249131
      7          1           0        2.953879    0.462045    0.601568
      8          1           0        0.659449    0.021524    1.731069
      9          1           0        1.379875   -0.991577    0.493700
     10          1           0       -0.246852    1.485554   -0.097227
     11          1           0        0.609718   -0.570998   -1.781473
     12          1           0       -1.110395   -1.422110   -0.278006
     13          1           0       -2.032502   -0.024174   -0.790122
     14          1           0       -2.707368   -0.074714    1.249751
 ---------------------------------------------------------------------
                    Distance matrix (angstroms):
                    1          2          3          4          5
     1  O    0.000000
     2  C    1.402819   0.000000
     3  C    2.387149   1.519204   0.000000
     4  O    2.878599   2.419882   1.405647   0.000000
     5  C    3.743010   2.527649   1.524747   2.393561   0.000000
     6  O    4.125573   2.899684   2.401907   3.621273   1.402517
     7  H    0.943899   1.945124   3.099137   3.357819   4.390593
     8  H    2.044122   1.082505   2.136741   3.337721   2.690435
     9  H    2.066851   1.090133   2.138400   2.647646   2.811846
    10  H    2.554455   2.127467   1.081242   1.990900   2.137217
    11  H    3.231403   2.617253   1.941579   0.946826   2.579593
    12  H    4.109713   2.797338   2.153368   2.661041   1.090144
    13  H    4.507042   3.447028   2.128838   2.589399   1.084223
    14  H    4.980698   3.807416   3.114467   4.229106   1.944623
                    6          7          8          9         10
     6  O    0.000000
     7  H    4.826415   0.000000
     8  H    2.497592   2.595041   0.000000
     9  H    3.333013   2.145260   1.753987   0.000000
    10  H    2.668945   3.432283   2.511461   3.021857   0.000000
    11  H    3.872326   3.498736   3.562514   2.438532   2.792813
    12  H    2.044838   4.565306   3.041843   2.642411   3.038569
    13  H    2.066138   5.199731   3.688509   3.772053   2.438838
    14  H    0.943932   5.723458   3.402409   4.256502   3.209817
                   11         12         13         14
    11  H    0.000000
    12  H    2.437949   0.000000
    13  H    2.874564   1.751219   0.000000
    14  H    4.520805   2.588405   2.149205   0.000000
 Stoichiometry    C3H8O3
 Framework group  C1[X(C3H8O3)]
 Deg. of freedom    36
 Full point group                 C1      NOp   1
 RotChk:  IX=0 Diff= 1.08D-02
 Largest Abelian subgroup         C1      NOp   1
 Largest concise Abelian subgroup C1      NOp   1
                         Standard orientation:                         
 ---------------------------------------------------------------------
 Center     Atomic      Atomic             Coordinates (Angstroms)
 Number     Number       Type             X           Y           Z
 ---------------------------------------------------------------------
      1          8           0       -2.115080   -0.739399   -0.262497
      2          6           0       -0.854803   -0.702013    0.352487
      3          6           0       -0.005201    0.376694   -0.297548
      4          8           0       -0.534686    1.658932   -0.070937
      5          6           0        1.443755    0.334445    0.175308
      6          8           0        2.002616   -0.924756   -0.087640
      7          1           0       -2.798099   -0.778579    0.387807
      8          1           0       -0.361350   -1.659376    0.243968
      9          1           0       -0.938827   -0.492122    1.418918
     10          1           0       -0.030026    0.236603   -1.369389
     11          1           0       -0.532377    1.845780    0.857267
     12          1           0        1.488272    0.538119    1.245331
     13          1           0        1.986650    1.127451   -0.326634
     14          1           0        2.860447   -0.830855   -0.470153
 ---------------------------------------------------------------------
 Rotational constants (GHZ):      5.2854379      2.4215576      1.7888242
 Leave Link  202 at Wed Sep 20 14:32:23 2023, MaxMem=    33554432 cpu:         0.0
 (Enter /mnt/storage/apps/eb/software/gaussian/09/l301.exe)
 Standard basis: 6-31G(d) (6D, 7F)
 Ernie: Thresh=  0.10000D-02 Tol=  0.10000D-05 Strict=F.
 There are   106 symmetry adapted cartesian basis functions of A   symmetry.
 There are   106 symmetry adapted basis functions of A   symmetry.
   106 basis functions,   200 primitive gaussians,   106 cartesian basis functions
    25 alpha electrons       25 beta electrons
       nuclear repulsion energy       262.4465337241 Hartrees.
 IExCor=    0 DFT=F Ex=HF Corr=None ExCW=0 ScaHFX=  1.000000
 ScaDFX=  1.000000  1.000000  1.000000  1.000000 ScalE2=  1.000000  1.000000
 IRadAn=      0 IRanWt=     -1 IRanGd=            0 ICorTp=0 IEmpDi=  4
 NAtoms=   14 NActive=   14 NUniq=   14 SFac= 1.00D+00 NAtFMM=   60 NAOKFM=F Big=F
 Integral buffers will be    131072 words long.
 Raffenetti 1 integral format.
 Two-electron integral symmetry is turned on.
 Leave Link  301 at Wed Sep 20 14:32:23 2023, MaxMem=    33554432 cpu:         0.0
 (Enter /mnt/storage/apps/eb/software/gaussian/09/l302.exe)
 NPDir=0 NMtPBC=     1 NCelOv=     1 NCel=       1 NClECP=     1 NCelD=      1
         NCelK=      1 NCelE2=     1 NClLst=     1 CellRange=     0.0.
 One-electron integrals computed using PRISM.
 NBasis=   106 RedAO= T EigKep=  3.28D-03  NBF=   106
 NBsUse=   106 1.00D-06 EigRej= -1.00D+00 NBFU=   106
 Leave Link  302 at Wed Sep 20 14:32:23 2023, MaxMem=    33554432 cpu:         0.1
 (Enter /mnt/storage/apps/eb/software/gaussian/09/l303.exe)
 DipDrv:  MaxL=1.
 Leave Link  303 at Wed Sep 20 14:32:23 2023, MaxMem=    33554432 cpu:         0.0
 (Enter /mnt/storage/apps/eb/software/gaussian/09/l401.exe)
 Initial guess from the checkpoint file:  "/scratch/nca121/18446470/Gau-3934.chk"
 B after Tr=     0.000000    0.000000    0.000000
         Rot=    0.999997    0.001775    0.000143   -0.001945 Ang=   0.30 deg.
 Guess basis will be translated and rotated to current coordinates.
 JPrj=2 DoOrth=T DoCkMO=T.
 Generating alternative initial guess.
 ExpMin= 1.61D-01 ExpMax= 5.48D+03 ExpMxC= 8.25D+02 IAcc=1 IRadAn=         1 AccDes= 0.00D+00
 Harris functional with IExCor=  205 and IRadAn=       1 diagonalized for initial guess.
 HarFok:  IExCor=  205 AccDes= 0.00D+00 IRadAn=         1 IDoV= 1 UseB2=F ITyADJ=14
 ICtDFT=  3500011 ScaDFX=  1.000000  1.000000  1.000000  1.000000
 FoFCou: FMM=F IPFlag=           0 FMFlag=      100000 FMFlg1=           0
         NFxFlg=           0 DoJE=T BraDBF=F KetDBF=T FulRan=T
         wScrn=  0.000000 ICntrl=     500 IOpCl=  0 I1Cent=   200000004 NGrid=           0
         NMat0=    1 NMatS0=      1 NMatT0=    0 NMatD0=    1 NMtDS0=    0 NMtDT0=    0
 Petite list used in FoFCou.
 Harris En= -343.196154405037    
 Leave Link  401 at Wed Sep 20 14:32:23 2023, MaxMem=    33554432 cpu:         0.3
 (Enter /mnt/storage/apps/eb/software/gaussian/09/l508.exe)
 Direct SCF.
 Tight linear equation convergence will be used.
 RHF wavefunction.
 Quadratic Convergence SCF Method.
 Line search only if initial step raises energy.
 Integral symmetry usage will be decided dynamically.
 ReadGW:  IGet=1 IStart=         402 Next=         402 LGW=           0.
 Keep R1 ints in memory in canonical form, NReq=17056382.
 FoFCou: FMM=F IPFlag=           0 FMFlag=           0 FMFlg1=           0
         NFxFlg=           0 DoJE=F BraDBF=F KetDBF=F FulRan=T
         wScrn=  0.000000 ICntrl=     600 IOpCl=  0 I1Cent=           0 NGrid=           0
         NMat0=    1 NMatS0=   5671 NMatT0=    0 NMatD0=    1 NMtDS0=    0 NMtDT0=    0
 Symmetry not used in FoFCou.
 Iteration   1 EE= -342.801204434154                                    Grad=3.462D-02 Max rot=    0.1878 deg.
 Gradient too large for Newton-Raphson -- use scaled steepest descent instead.
 Alpha Gap=     1.930 HL deriv= 1.47D-04
     ILin= 1 X=0.000D+00 Y=-3.428012044342D+02 DE= 0.00D+00 F= -1.00D-03
     ILin= 2 X=3.000D-01 Y=-3.428014741048D+02 DE=-2.70D-04 F= -7.94D-04
     ILin= 3 X=6.000D-01 Y=-3.428016808665D+02 DE=-4.76D-04 F= -5.84D-04
     ILin= 4 X=1.200D+00 Y=-3.428019056518D+02 DE=-7.01D-04 F= -1.65D-04
     ILin= 5 X=2.400D+00 Y=-3.428016002015D+02 DE=-3.96D-04 F=  6.74D-04
     An  expanding polynomial of degree  5 produced  1.4359
 Iteration   2 EE= -342.801925105661     Delta-E=       -0.000720671507 Grad=1.867D-02 Max rot=    0.0911 deg.
 Gradient too large for Newton-Raphson -- use scaled steepest descent instead.
 Alpha Gap=     1.930 HL deriv= 1.85D-04
     ILin= 1 X=0.000D+00 Y=-3.428019251057D+02 DE= 0.00D+00 F= -2.86D-04
     ILin= 2 X=7.000D-01 Y=-3.428020517622D+02 DE=-1.27D-04 F= -7.56D-05
     Reject lnstep minimum 1.161D+00 FVal=-3.428020884986D+02 Lims=  0.00D+00  7.00D-01
     ILin= 3 X=1.300D+00 Y=-3.428020429504D+02 DE=-1.18D-04 F=  1.05D-04
     An  expanding polynomial of degree  3 produced  0.9512
 Iteration   3 EE= -342.802061257340     Delta-E=       -0.000136151678 Grad=1.017D-02 Max rot=    0.0496 deg.
 Gradient too large for Newton-Raphson -- use scaled steepest descent instead.
 Alpha Gap=     1.930 HL deriv= 9.97D-05
     ILin= 1 X=0.000D+00 Y=-3.428020612573D+02 DE= 0.00D+00 F= -8.94D-05
     ILin= 2 X=1.200D+00 Y=-3.428020991223D+02 DE=-3.79D-05 F=  2.63D-05
     Accept linear search using points  1 and  2.
     An  expanding polynomial of degree  2 produced  0.9866
 Iteration   4 EE= -342.802102540043     Delta-E=       -0.000041282704 Grad=8.226D-03 Max rot=    0.0403 deg.
 QCNR:  CnvC1=6.36D-09 CnvC2=6.36D-08
 LinEq1:  Iter=  0 NonCon=     1 RMS=8.06D-05 Max=7.34D-04 NDo=     1
 AX will form     1 AO Fock derivatives at one time.
 LinEq1:  Iter=  1 NonCon=     1 RMS=9.45D-06 Max=9.95D-05 NDo=     1
 LinEq1:  Iter=  2 NonCon=     1 RMS=2.80D-06 Max=2.16D-05 NDo=     1
[...]
 Predicted change in Energy=-1.234952D-10
 Optimization completed.
    -- Stationary point found.
                           ----------------------------
                           !   Optimized Parameters   !
                           ! (Angstroms and Degrees)  !
 --------------------------                            --------------------------
 ! Name  Definition              Value          Derivative Info.                !
 --------------------------------------------------------------------------------
 ! R1    R(1,2)                  1.4097         -DE/DX =    0.0                 !
 ! R2    R(1,7)                  0.9463         -DE/DX =    0.0                 !
 ! R3    R(2,3)                  1.5185         -DE/DX =    0.0                 !
 ! R4    R(2,8)                  1.0835         -DE/DX =    0.0                 !
 ! R5    R(2,9)                  1.0878         -DE/DX =    0.0                 !
 ! R6    R(3,4)                  1.4006         -DE/DX =    0.0                 !
 ! R7    R(3,5)                  1.5166         -DE/DX =    0.0                 !
 ! R8    R(3,10)                 1.0875         -DE/DX =    0.0                 !
 ! R9    R(4,11)                 0.9489         -DE/DX =    0.0                 !
 ! R10   R(5,6)                  1.404          -DE/DX =    0.0                 !
 ! R11   R(5,12)                 1.0875         -DE/DX =    0.0                 !
 ! R12   R(5,13)                 1.0858         -DE/DX =    0.0                 !
 ! R13   R(6,14)                 0.9463         -DE/DX =    0.0                 !
 ! A1    A(2,1,7)              110.083          -DE/DX =    0.0                 !
 ! A2    A(1,2,3)              106.2811         -DE/DX =    0.0                 !
 ! A3    A(1,2,8)              111.2484         -DE/DX =    0.0                 !
 ! A4    A(1,2,9)              110.5169         -DE/DX =    0.0                 !
 ! A5    A(3,2,8)              110.3334         -DE/DX =    0.0                 !
 ! A6    A(3,2,9)              109.5031         -DE/DX =    0.0                 !
 ! A7    A(8,2,9)              108.9292         -DE/DX =    0.0                 !
 ! A8    A(2,3,4)              110.3666         -DE/DX =    0.0                 !
 ! A9    A(2,3,5)              112.6704         -DE/DX =    0.0                 !
 ! A10   A(2,3,10)             108.1605         -DE/DX =    0.0                 !
 ! A11   A(4,3,5)              106.3332         -DE/DX =    0.0                 !
 ! A12   A(4,3,10)             110.499          -DE/DX =    0.0                 !
 ! A13   A(5,3,10)             108.8086         -DE/DX =    0.0                 !
 ! A14   A(3,4,11)             107.8485         -DE/DX =    0.0                 !
 ! A15   A(3,5,6)              108.197          -DE/DX =    0.0                 !
 ! A16   A(3,5,12)             109.2787         -DE/DX =    0.0                 !
 ! A17   A(3,5,13)             108.5581         -DE/DX =    0.0                 !
 ! A18   A(6,5,12)             111.3464         -DE/DX =    0.0                 !
 ! A19   A(6,5,13)             111.4628         -DE/DX =    0.0                 !
 ! A20   A(12,5,13)            107.9446         -DE/DX =    0.0                 !
 ! A21   A(5,6,14)             109.7212         -DE/DX =    0.0                 !
 ! D1    D(7,1,2,3)           -175.5319         -DE/DX =    0.0                 !
 ! D2    D(7,1,2,8)             64.3376         -DE/DX =    0.0                 !
 ! D3    D(7,1,2,9)            -56.8036         -DE/DX =    0.0                 !
 ! D4    D(1,2,3,4)             56.9923         -DE/DX =    0.0                 !
 ! D5    D(1,2,3,5)            175.688          -DE/DX =    0.0                 !
 ! D6    D(1,2,3,10)           -63.9983         -DE/DX =    0.0                 !
 ! D7    D(8,2,3,4)            177.7143         -DE/DX =    0.0                 !
 ! D8    D(8,2,3,5)            -63.59           -DE/DX =    0.0                 !
 ! D9    D(8,2,3,10)            56.7238         -DE/DX =    0.0                 !
 ! D10   D(9,2,3,4)            -62.4004         -DE/DX =    0.0                 !
 ! D11   D(9,2,3,5)             56.2953         -DE/DX =    0.0                 !
 ! D12   D(9,2,3,10)           176.6091         -DE/DX =    0.0                 !
 ! D13   D(2,3,4,11)           -48.6711         -DE/DX =    0.0                 !
 ! D14   D(5,3,4,11)          -171.165          -DE/DX =    0.0                 !
 ! D15   D(10,3,4,11)           70.915          -DE/DX =    0.0                 !
 ! D16   D(2,3,5,6)             60.76           -DE/DX =    0.0                 !
 ! D17   D(2,3,5,12)           -60.6334         -DE/DX =    0.0                 !
 ! D18   D(2,3,5,13)          -178.1323         -DE/DX =    0.0                 !
 ! D19   D(4,3,5,6)           -178.2135         -DE/DX =    0.0                 !
 ! D20   D(4,3,5,12)            60.3931         -DE/DX =    0.0                 !
 ! D21   D(4,3,5,13)           -57.1058         -DE/DX =    0.0                 !
 ! D22   D(10,3,5,6)           -59.1805         -DE/DX =    0.0                 !
 ! D23   D(10,3,5,12)          179.4261         -DE/DX =    0.0                 !
 ! D24   D(10,3,5,13)           61.9272         -DE/DX =    0.0                 !
 ! D25   D(3,5,6,14)           177.5852         -DE/DX =    0.0                 !
 ! D26   D(12,5,6,14)          -62.308          -DE/DX =    0.0                 !
 ! D27   D(13,5,6,14)           58.2954         -DE/DX =    0.0                 !
 --------------------------------------------------------------------------------
 Lowest energy point so far.  Saving SCF results.
 GradGradGradGradGradGradGradGradGradGradGradGradGradGradGradGradGradGrad

 Largest change from initial coordinates is atom   11       0.569 Angstoms.
 Leave Link  103 at Wed Sep 20 14:33:41 2023, MaxMem=    33554432 cpu:         0.0
 (Enter /mnt/storage/apps/eb/software/gaussian/09/l202.exe)
                          Input orientation:                          
 ---------------------------------------------------------------------
 Center     Atomic      Atomic             Coordinates (Angstroms)
 Number     Number       Type             X           Y           Z
 ---------------------------------------------------------------------
      1          8           0        2.192841    0.605709    0.252834
      2          6           0        1.013977   -0.039227    0.679061
      3          6           0       -0.069281    0.357852   -0.308189
      4          8           0        0.307598    0.009756   -1.611472
      5          6           0       -1.387308   -0.344201   -0.043453
      6          8           0       -1.823187    0.011954    1.242816
      7          1           0        2.922434    0.339814    0.793671
      8          1           0        0.739828    0.266255    1.681843
      9          1           0        1.142736   -1.119222    0.661975
     10          1           0       -0.222112    1.431736   -0.229924
     11          1           0        1.192240    0.322878   -1.751836
     12          1           0       -1.245362   -1.418920   -0.129870
     13          1           0       -2.100244   -0.038771   -0.803270
     14          1           0       -2.664159   -0.385613    1.416470
 ---------------------------------------------------------------------
                    Distance matrix (angstroms):
                    1          2          3          4          5
     1  O    0.000000
     2  C    1.409728   0.000000
     3  C    2.343796   1.518480   0.000000
     4  O    2.717525   2.397481   1.400627   0.000000
     5  C    3.715856   2.526105   1.516627   2.335953   0.000000
     6  O    4.178648   2.893085   2.366738   3.561911   1.404039
     7  H    0.946315   1.949107   3.188226   3.568056   4.443257
     8  H    2.066045   1.083535   2.150181   3.331447   2.806067
     9  H    2.060462   1.087777   2.142884   2.672192   2.738505
    10  H    2.597571   2.125535   1.087524   2.052144   2.132230
    11  H    2.258296   2.464175   1.917492   0.948862   3.165064
    12  H    4.008345   2.768129   2.138197   2.578361   1.087492
    13  H    4.467806   3.449011   2.127728   2.540324   1.085765
    14  H    5.091877   3.767285   3.203214   4.260996   1.939958
                    6          7          8          9         10
     6  O    0.000000
     7  H    4.778090   0.000000
     8  H    2.612750   2.357547   0.000000
     9  H    3.227016   2.305093   1.766922   0.000000
    10  H    2.597728   3.482558   2.436909   3.027487   0.000000
    11  H    4.261152   3.077900   3.463818   2.812221   2.355031
    12  H    2.065321   4.616991   3.172240   2.533743   3.030395
    13  H    2.065382   5.284018   3.786138   3.719037   2.453263
    14  H    0.946281   5.667816   3.475986   3.949670   3.460775
                   11         12         13         14
    11  H    0.000000
    12  H    3.406837   0.000000
    13  H    3.445434   1.757584   0.000000
    14  H    5.041025   2.339204   2.316365   0.000000
 Stoichiometry    C3H8O3
 Framework group  C1[X(C3H8O3)]
 Deg. of freedom    36
 Full point group                 C1      NOp   1
 RotChk:  IX=0 Diff= 1.80D-15
 Largest Abelian subgroup         C1      NOp   1
 Largest concise Abelian subgroup C1      NOp   1
                         Standard orientation:                         
 ---------------------------------------------------------------------
 Center     Atomic      Atomic             Coordinates (Angstroms)
 Number     Number       Type             X           Y           Z
 ---------------------------------------------------------------------
      1          8           0       -2.119215   -0.615024   -0.175013
      2          6           0       -0.798789   -0.783082    0.289276
      3          6           0        0.007684    0.362084   -0.297219
      4          8           0       -0.552551    1.591741    0.071342
      5          6           0        1.441196    0.381077    0.197595
      6          8           0        2.054303   -0.821551   -0.188555
      7          1           0       -2.686036   -1.264578    0.215251
      8          1           0       -0.388677   -1.734160   -0.029014
      9          1           0       -0.766983   -0.730810    1.375331
     10          1           0        0.011698    0.254479   -1.379399
     11          1           0       -1.484237    1.550990   -0.103698
     12          1           0        1.446335    0.498716    1.278694
     13          1           0        1.944664    1.240401   -0.234804
     14          1           0        2.962389   -0.816836    0.077538
 ---------------------------------------------------------------------
 Rotational constants (GHZ):      5.7853325      2.3942330      1.8049246
 Leave Link  202 at Wed Sep 20 14:33:41 2023, MaxMem=    33554432 cpu:         0.0
 (Enter /mnt/storage/apps/eb/software/gaussian/09/l601.exe)
 Copying SCF densities to generalized density rwf, IOpCl= 0 IROHF=0.

 **********************************************************************

            Population analysis using the SCF density.

 **********************************************************************

 Orbital symmetries:
       Occupied  (A) (A) (A) (A) (A) (A) (A) (A) (A) (A) (A) (A)
                 (A) (A) (A) (A) (A) (A) (A) (A) (A) (A) (A) (A)
                 (A)
       Virtual   (A) (A) (A) (A) (A) (A) (A) (A) (A) (A) (A) (A)
                 (A) (A) (A) (A) (A) (A) (A) (A) (A) (A) (A) (A)
                 (A) (A) (A) (A) (A) (A) (A) (A) (A) (A) (A) (A)
                 (A) (A) (A) (A) (A) (A) (A) (A) (A) (A) (A) (A)
                 (A) (A) (A) (A) (A) (A) (A) (A) (A) (A) (A) (A)
                 (A) (A) (A) (A) (A) (A) (A) (A) (A) (A) (A) (A)
                 (A) (A) (A) (A) (A) (A) (A) (A) (A)
 The electronic state is 1-A.
 Alpha  occ. eigenvalues --  -20.56635 -20.56304 -20.54895 -11.27054 -11.26973
 Alpha  occ. eigenvalues --  -11.26839  -1.38380  -1.36874  -1.34955  -1.02701
 Alpha  occ. eigenvalues --   -0.92165  -0.80057  -0.72694  -0.71539  -0.67092
 Alpha  occ. eigenvalues --   -0.65007  -0.62760  -0.58421  -0.56509  -0.53437
 Alpha  occ. eigenvalues --   -0.52630  -0.47083  -0.45473  -0.44323  -0.42646
 Alpha virt. eigenvalues --    0.21237   0.22839   0.27191   0.28662   0.30658
 Alpha virt. eigenvalues --    0.31631   0.34285   0.35763   0.38645   0.41143
 Alpha virt. eigenvalues --    0.44436   0.45789   0.49426   0.75366   0.78614
 Alpha virt. eigenvalues --    0.80010   0.82509   0.86645   0.89141   0.93628
 Alpha virt. eigenvalues --    0.95826   1.00786   1.06507   1.08238   1.10349
 Alpha virt. eigenvalues --    1.11721   1.14109   1.14833   1.18805   1.19754
 Alpha virt. eigenvalues --    1.21300   1.24739   1.26848   1.29467   1.29990
 Alpha virt. eigenvalues --    1.34069   1.35194   1.40142   1.49531   1.55597
 Alpha virt. eigenvalues --    1.61855   1.63047   1.66156   1.72022   1.84336
 Alpha virt. eigenvalues --    1.86602   1.89812   1.95052   2.01694   2.03009
 Alpha virt. eigenvalues --    2.06602   2.09077   2.14941   2.22298   2.24519
 Alpha virt. eigenvalues --    2.26821   2.38999   2.41653   2.42132   2.46983
 Alpha virt. eigenvalues --    2.50084   2.54140   2.65869   2.71671   2.74447
 Alpha virt. eigenvalues --    2.81126   2.84409   2.86858   2.88874   2.89978
 Alpha virt. eigenvalues --    2.99091   3.10002   3.21937   3.27896   3.31670
 Alpha virt. eigenvalues --    4.12591   4.21657   4.34390   4.65078   4.78564
 Alpha virt. eigenvalues --    4.98584
          Condensed to atoms (all electrons):
               1          2          3          4          5          6
     1  O    8.414787   0.205648  -0.056067  -0.002452   0.002193   0.000011
     2  C    0.205648   4.854078   0.366586  -0.047322  -0.059121   0.003828
     3  C   -0.056067   0.366586   4.792039   0.206197   0.370130  -0.053213
     4  O   -0.002452  -0.047322   0.206197   8.430790  -0.052764   0.001070
     5  C    0.002193  -0.059121   0.370130  -0.052764   4.824297   0.195542
     6  O    0.000011   0.003828  -0.053213   0.001070   0.195542   8.406223
     7  H    0.264989  -0.022471   0.005848   0.000007  -0.000175   0.000004
     8  H   -0.036860   0.390986  -0.037845   0.003332  -0.001369   0.003652
     9  H   -0.040064   0.388706  -0.040702   0.000141  -0.001441   0.000180
    10  H    0.001071  -0.055445   0.399972  -0.037943  -0.045238   0.004404
    11  H    0.014726  -0.010183  -0.024956   0.262808   0.005694  -0.000095
    12  H   -0.000059  -0.009943  -0.041582   0.004856   0.390720  -0.038731
    13  H   -0.000043   0.006010  -0.043123   0.003303   0.403607  -0.034821
    14  H    0.000001  -0.000129   0.005830  -0.000090  -0.020995   0.263092
               7          8          9         10         11         12
     1  O    0.264989  -0.036860  -0.040064   0.001071   0.014726  -0.000059
     2  C   -0.022471   0.390986   0.388706  -0.055445  -0.010183  -0.009943
     3  C    0.005848  -0.037845  -0.040702   0.399972  -0.024956  -0.041582
     4  O    0.000007   0.003332   0.000141  -0.037943   0.262808   0.004856
     5  C   -0.000175  -0.001369  -0.001441  -0.045238   0.005694   0.390720
     6  O    0.000004   0.003652   0.000180   0.004404  -0.000095  -0.038731
     7  H    0.311302  -0.002503  -0.003899  -0.000284  -0.000520  -0.000005
     8  H   -0.002503   0.542746  -0.038124  -0.000285   0.000437   0.000653
     9  H   -0.003899  -0.038124   0.581670   0.005496   0.000037   0.003823
    10  H   -0.000284  -0.000285   0.005496   0.561807  -0.001184   0.005602
    11  H   -0.000520   0.000437   0.000037  -0.001184   0.289565  -0.000249
    12  H   -0.000005   0.000653   0.003823   0.005602  -0.000249   0.579780
    13  H    0.000004  -0.000090  -0.000143  -0.006235  -0.000299  -0.042386
    14  H    0.000000  -0.000050  -0.000045  -0.000241   0.000006  -0.003177
              13         14
     1  O   -0.000043   0.000001
     2  C    0.006010  -0.000129
     3  C   -0.043123   0.005830
     4  O    0.003303  -0.000090
     5  C    0.403607  -0.020995
     6  O   -0.034821   0.263092
     7  H    0.000004   0.000000
     8  H   -0.000090  -0.000050
     9  H   -0.000143  -0.000045
    10  H   -0.006235  -0.000241
    11  H   -0.000299   0.000006
    12  H   -0.042386  -0.003177
    13  H    0.551685  -0.003467
    14  H   -0.003467   0.313692
 Mulliken charges:
               1
     1  O   -0.767879
     2  C   -0.011228
     3  C    0.150886
     4  O   -0.771932
     5  C   -0.011079
     6  O   -0.751146
     7  H    0.447704
     8  H    0.175321
     9  H    0.144366
    10  H    0.168504
    11  H    0.464212
    12  H    0.150699
    13  H    0.165998
    14  H    0.445573
 Sum of Mulliken charges =   0.00000
 Mulliken charges with hydrogens summed into heavy atoms:
               1
     1  O   -0.320175
     2  C    0.308459
     3  C    0.319391
     4  O   -0.307720
     5  C    0.305618
     6  O   -0.305572
 Electronic spatial extent (au):  <R**2>=            663.9667
 Charge=              0.0000 electrons
 Dipole moment (field-independent basis, Debye):
    X=              0.3951    Y=             -1.4656    Z=              1.3199  Tot=              2.0116
 Quadrupole moment (field-independent basis, Debye-Ang):
   XX=            -26.4506   YY=            -38.5054   ZZ=            -36.9549
   XY=              3.2044   XZ=             -0.2197   YZ=             -2.7125
 Traceless Quadrupole moment (field-independent basis, Debye-Ang):
   XX=              7.5197   YY=             -4.5351   ZZ=             -2.9846
   XY=              3.2044   XZ=             -0.2197   YZ=             -2.7125
 Octapole moment (field-independent basis, Debye-Ang**2):
  XXX=             12.3220  YYY=            -10.1255  ZZZ=             -0.0726  XYY=            -10.8829
  XXY=             -6.7476  XXZ=             10.3171  XZZ=             -0.9449  YZZ=              0.1059
  YYZ=             -0.1637  XYZ=              1.8371
 Hexadecapole moment (field-independent basis, Debye-Ang**3):
 XXXX=           -341.6820 YYYY=           -223.8687 ZZZZ=            -63.8359 XXXY=              0.3226
 XXXZ=             -4.2781 YYYX=              3.8051 YYYZ=             -2.5106 ZZZX=             -0.1558
 ZZZY=             -0.5660 XXYY=            -87.9609 XXZZ=            -95.8778 YYZZ=            -48.5946
 XXYZ=            -11.7581 YYXZ=             -1.2735 ZZXY=             -0.5088
 N-N= 2.640673364840D+02 E-N=-1.336570668255D+03  KE= 3.422788118992D+02
 No NMR shielding tensors so no spin-rotation constants.
 Leave Link  601 at Wed Sep 20 14:33:41 2023, MaxMem=    33554432 cpu:         0.1
 (Enter /mnt/storage/apps/eb/software/gaussian/09/l9999.exe)
 1\1\GINC-SB084\FOpt\RHF\6-31G(d)\C3H8O3\NCA121\20-Sep-2023\0\\#P hf/6-
 31G* scf(qc) opt(tight,maxcycle=100)\\Gaussian input prepared by ASE\\
 0,1\O,2.1928413085,0.6057088683,0.2528339521\C,1.0139767077,-0.0392269
 92,0.6790610938\C,-0.0692810732,0.3578523432,-0.3081891863\O,0.3075977
 49,0.0097564551,-1.6114722582\C,-1.387308015,-0.3442005248,-0.04345341
 01\O,-1.823187216,0.0119535897,1.242816282\H,2.9224342955,0.3398138001
 ,0.7936714987\H,0.7398281943,0.2662553867,1.6818432611\H,1.1427359962,
 -1.1192218596,0.6619751857\H,-0.222111638,1.4317360584,-0.2299237264\H
 ,1.1922395858,0.3228782327,-1.7518361178\H,-1.2453623227,-1.4189203575
 ,-0.1298701381\H,-2.1002439328,-0.0387709114,-0.8032703811\H,-2.664158
 6393,-0.3856130887,1.4164699446\\Version=ES64L-G09RevD.01\State=1-A\HF
 =-342.8130467\RMSD=0.000e+00\RMSF=1.478e-06\Dipole=0.0352234,-0.504323
 2,0.6088895\Quadrupole=6.1108964,-2.2777205,-3.8331759,0.8035834,0.868
 4085,-1.879172\PG=C01 [X(C3H8O3)]\\@


 A MAN IS EXACTLY AS GREAT AS THE TIDE SURGING
 BENEATH HIM.      - BISMARCK
 Job cpu time:       0 days  0 hours  1 minutes 25.1 seconds.
 File lengths (MBytes):  RWF=      6 Int=      0 D2E=      0 Chk=      2 Scr=      1
 Normal termination of Gaussian 09 at Wed Sep 20 14:33:41 2023.
