 Entering Gaussian System, Link 0=g09
 Initial command:
 /mnt/storage/apps/eb/software/gaussian/09/l1.exe "/scratch/nca121/18446470/Gau-6934.inp" -scrdir="/scratch/nca121/18446470/"
 Entering Link 1 = /mnt/storage/apps/eb/software/gaussian/09/l1.exe PID=      6935.
  
 Copyright (c) 1988,1990,1992,1993,1995,1998,2003,2009,2013,
            Gaussian, Inc.  All Rights Reserved.
  
 This is part of the Gaussian(R) 09 program.  It is based on
 the Gaussian(R) 03 system (copyright 2003, Gaussian, Inc.),
 the Gaussian(R) 98 system (copyright 1998, Gaussian, Inc.),
 the Gaussian(R) 94 system (copyright 1995, Gaussian, Inc.),
 the Gaussian 92(TM) system (copyright 1992, Gaussian, Inc.),
 the Gaussian 90(TM) system (copyright 1990, Gaussian, Inc.),
 the Gaussian 88(TM) system (copyright 1988, Gaussian, Inc.),
 the Gaussian 86(TM) system (copyright 1986, Carnegie Mellon
 University), and the Gaussian 82(TM) system (copyright 1983,
 Carnegie Mellon University). Gaussian is a federally registered
 trademark of Gaussian, Inc.
  
 This software contains proprietary and confidential information,
 including trade secrets, belonging to Gaussian, Inc.
  
 This software is provided under written license and may be
 used, copied, transmitted, or stored only in accord with that
 written license.
  
 The following legend is applicable only to US Government
 contracts under FAR:
  
                    RESTRICTED RIGHTS LEGEND
  
 Use, reproduction and disclosure by the US Government is
 subject to restrictions as set forth in subparagraphs (a)
 and (c) of the Commercial Computer Software - Restricted
 Rights clause in FAR 52.227-19.
  
 Gaussian, Inc.
 340 Quinnipiac St., Bldg. 40, Wallingford CT 06492
  
  
 ---------------------------------------------------------------
 Warning -- This program may not be used in any manner that
 competes with the business of Gaussian, Inc. or will provide
 assistance to any competitor of Gaussian, Inc.  The licensee
 of this program is prohibited from giving any competitor of
 Gaussian, Inc. access to this program.  By using this program,
 the user acknowledges that Gaussian, Inc. is engaged in the
 business of creating and licensing software in the field of
 computational chemistry and represents and warrants to the
 licensee that it is not a competitor of Gaussian, Inc. and that
 it will not use this program in any manner prohibited above.
 ---------------------------------------------------------------
  

 Cite this work as:
 Gaussian 09, Revision D.01,
 M. J. Frisch, G. W. Trucks, H. B. Schlegel, G. E. Scuseria, 
 M. A. Robb, J. R. Cheeseman, G. Scalmani, V. Barone, B. Mennucci, 
 G. A. Petersson, H. Nakatsuji, M. Caricato, X. Li, H. P. Hratchian, 
 A. F. Izmaylov, J. Bloino, G. Zheng, J. L. Sonnenberg, M. Hada, 
 M. Ehara, K. Toyota, R. Fukuda, J. Hasegawa, M. Ishida, T. Nakajima, 
 Y. Honda, O. Kitao, H. Nakai, T. Vreven, J. A. Montgomery, Jr., 
 J. E. Peralta, F. Ogliaro, M. Bearpark, J. J. Heyd, E. Brothers, 
 K. N. Kudin, V. N. Staroverov, T. Keith, R. Kobayashi, J. Normand, 
 K. Raghavachari, A. Rendell, J. C. Burant, S. S. Iyengar, J. Tomasi, 
 M. Cossi, N. Rega, J. M. Millam, M. Klene, J. E. Knox, J. B. Cross, 
 V. Bakken, C. Adamo, J. Jaramillo, R. Gomperts, R. E. Stratmann, 
 O. Yazyev, A. J. Austin, R. Cammi, C. Pomelli, J. W. Ochterski, 
 R. L. Martin, K. Morokuma, V. G. Zakrzewski, G. A. Voth, 
 P. Salvador, J. J. Dannenberg, S. Dapprich, A. D. Daniels, 
 O. Farkas, J. B. Foresman, J. V. Ortiz, J. Cioslowski, 
 and D. J. Fox, Gaussian, Inc., Wallingford CT, 2013.
 
 ******************************************
 Gaussian 09:  ES64L-G09RevD.01 24-Apr-2013
                20-Sep-2023 
 ******************************************
 --------------------------------------------
 #P hf/6-31G* scf(qc) opt(tight,maxcycle=100)
 --------------------------------------------
 1/6=100,7=10,18=20,19=15,38=1/1,3;
 2/9=110,12=2,17=6,18=5,40=1/2;
 3/5=1,6=6,7=1,11=9,16=1,25=1,30=1,71=1/1,2,3;
 4//1;
 5/5=2,8=3,38=5/8;
 6/7=2,8=2,9=2,10=2,28=1/1;
 7//1,2,3,16;
 1/6=100,7=10,18=20,19=15/3(2);
 2/9=110/2;
 99//99;
 2/9=110/2;
 3/5=1,6=6,7=1,11=9,16=1,25=1,30=1,71=1/1,2,3;
 4/5=5,16=3,69=1/1;
 5/5=2,8=3,38=5/8;
 7//1,2,3,16;
 1/6=100,7=10,18=20,19=15/3(-5);
 2/9=110/2;
 6/7=2,8=2,9=2,10=2,19=2,28=1/1;
 99/9=1/99;
 Leave Link    1 at Wed Sep 20 14:33:41 2023, MaxMem=           0 cpu:         0.0
 (Enter /mnt/storage/apps/eb/software/gaussian/09/l101.exe)
 ------------------------------
 Gaussian input prepared by ASE
 ------------------------------
 Symbolic Z-matrix:
 Charge =  0 Multiplicity = 1
 O                     1.72368  -1.22032   0.18412 
 C                     1.36396   0.12706   0.13403 
 C                    -0.04159   0.29033  -0.42689 
 O                    -0.37289   1.62004  -0.46652 
 C                    -1.00747  -0.55193   0.38158 
 O                    -2.28528  -0.46278  -0.16643 
 H                     2.43104  -1.29113   0.89188 
 H                     1.41661   0.62253   1.12415 
 H                     2.04298   0.62641  -0.60985 
 H                    -0.10241  -0.10591  -1.46266 
 H                    -0.70026   2.00055   0.37405 
 H                    -0.68898  -1.61806   0.22888 
 H                    -0.97625  -0.34042   1.45579 
 H                    -2.80316   0.30365   0.17866 
 
 NAtoms=     14 NQM=       14 NQMF=       0 NMMI=      0 NMMIF=      0
                NMic=       0 NMicF=      0.
                    Isotopes and Nuclear Properties:
 (Nuclear quadrupole moments (NQMom) in fm**2, nuclear magnetic moments (NMagM)
  in nuclear magnetons)

  Atom         1           2           3           4           5           6           7           8           9          10
 IAtWgt=          16          12          12          16          12          16           1           1           1           1
 AtmWgt=  15.9949146  12.0000000  12.0000000  15.9949146  12.0000000  15.9949146   1.0078250   1.0078250   1.0078250   1.0078250
 NucSpn=           0           0           0           0           0           0           1           1           1           1
 AtZEff=   0.0000000   0.0000000   0.0000000   0.0000000   0.0000000   0.0000000   0.0000000   0.0000000   0.0000000   0.0000000
 NQMom=    0.0000000   0.0000000   0.0000000   0.0000000   0.0000000   0.0000000   0.0000000   0.0000000   0.0000000   0.0000000
 NMagM=    0.0000000   0.0000000   0.0000000   0.0000000   0.0000000   0.0000000   2.7928460   2.7928460   2.7928460   2.7928460
 AtZNuc=   8.0000000   6.0000000   6.0000000   8.0000000   6.0000000   8.0000000   1.0000000   1.0000000   1.0000000   1.0000000

  Atom        11          12          13          14
 IAtWgt=           1           1           1           1
 AtmWgt=   1.0078250   1.0078250   1.0078250   1.0078250
 NucSpn=           1           1           1           1
 AtZEff=   0.0000000   0.0000000   0.0000000   0.0000000
 NQMom=    0.0000000   0.0000000   0.0000000   0.0000000
 NMagM=    2.7928460   2.7928460   2.7928460   2.7928460
 AtZNuc=   1.0000000   1.0000000   1.0000000   1.0000000
 Leave Link  101 at Wed Sep 20 14:33:41 2023, MaxMem=    33554432 cpu:         0.0
 (Enter /mnt/storage/apps/eb/software/gaussian/09/l103.exe)

 GradGradGradGradGradGradGradGradGradGradGradGradGradGradGradGradGradGrad
 Berny optimization.
 Initialization pass.
                           ----------------------------
                           !    Initial Parameters    !
                           ! (Angstroms and Degrees)  !
 --------------------------                            --------------------------
 ! Name  Definition              Value          Derivative Info.                !
 --------------------------------------------------------------------------------
 ! R1    R(1,2)                  1.3955         estimate D2E/DX2                !
 ! R2    R(1,7)                  1.0031         estimate D2E/DX2                !
 ! R3    R(2,3)                  1.5221         estimate D2E/DX2                !
 ! R4    R(2,8)                  1.1084         estimate D2E/DX2                !
 ! R5    R(2,9)                  1.1242         estimate D2E/DX2                !
 ! R6    R(3,4)                  1.3709         estimate D2E/DX2                !
 ! R7    R(3,5)                  1.5152         estimate D2E/DX2                !
 ! R8    R(3,10)                 1.1106         estimate D2E/DX2                !
 ! R9    R(4,11)                 0.979          estimate D2E/DX2                !
 ! R10   R(5,6)                  1.3932         estimate D2E/DX2                !
 ! R11   R(5,12)                 1.1231         estimate D2E/DX2                !
 ! R12   R(5,13)                 1.0953         estimate D2E/DX2                !
 ! R13   R(6,14)                 0.9873         estimate D2E/DX2                !
 ! A1    A(2,1,7)              105.9772         estimate D2E/DX2                !
 ! A2    A(1,2,3)              110.7829         estimate D2E/DX2                !
 ! A3    A(1,2,8)              112.7856         estimate D2E/DX2                !
 ! A4    A(1,2,9)              107.2737         estimate D2E/DX2                !
 ! A5    A(3,2,8)              108.9715         estimate D2E/DX2                !
 ! A6    A(3,2,9)              105.442          estimate D2E/DX2                !
 ! A7    A(8,2,9)              111.3364         estimate D2E/DX2                !
 ! A8    A(2,3,4)              109.7454         estimate D2E/DX2                !
 ! A9    A(2,3,5)              109.4136         estimate D2E/DX2                !
 ! A10   A(2,3,10)             110.853          estimate D2E/DX2                !
 ! A11   A(4,3,5)              113.6104         estimate D2E/DX2                !
 ! A12   A(4,3,10)             107.8094         estimate D2E/DX2                !
 ! A13   A(5,3,10)             105.3295         estimate D2E/DX2                !
 ! A14   A(3,4,11)             115.6559         estimate D2E/DX2                !
 ! A15   A(3,5,6)              109.8286         estimate D2E/DX2                !
 ! A16   A(3,5,12)             105.9226         estimate D2E/DX2                !
 ! A17   A(3,5,13)             113.4396         estimate D2E/DX2                !
 ! A18   A(6,5,12)             105.5067         estimate D2E/DX2                !
 ! A19   A(6,5,13)             113.5512         estimate D2E/DX2                !
 ! A20   A(12,5,13)            107.9729         estimate D2E/DX2                !
 ! A21   A(5,6,14)             113.1594         estimate D2E/DX2                !
 ! D1    D(7,1,2,3)           -155.9898         estimate D2E/DX2                !
 ! D2    D(7,1,2,8)            -33.5385         estimate D2E/DX2                !
 ! D3    D(7,1,2,9)             89.4114         estimate D2E/DX2                !
 ! D4    D(1,2,3,4)            179.9934         estimate D2E/DX2                !
 ! D5    D(1,2,3,5)             54.7053         estimate D2E/DX2                !
 ! D6    D(1,2,3,10)           -61.0291         estimate D2E/DX2                !
 ! D7    D(8,2,3,4)             55.3477         estimate D2E/DX2                !
 ! D8    D(8,2,3,5)            -69.9404         estimate D2E/DX2                !
 ! D9    D(8,2,3,10)           174.3252         estimate D2E/DX2                !
 ! D10   D(9,2,3,4)            -64.2635         estimate D2E/DX2                !
 ! D11   D(9,2,3,5)            170.4484         estimate D2E/DX2                !
 ! D12   D(9,2,3,10)            54.7139         estimate D2E/DX2                !
 ! D13   D(2,3,4,11)           -82.4004         estimate D2E/DX2                !
 ! D14   D(5,3,4,11)            40.4405         estimate D2E/DX2                !
 ! D15   D(10,3,4,11)          156.7654         estimate D2E/DX2                !
 ! D16   D(2,3,5,6)           -176.9728         estimate D2E/DX2                !
 ! D17   D(2,3,5,12)           -63.4941         estimate D2E/DX2                !
 ! D18   D(2,3,5,13)            54.7629         estimate D2E/DX2                !
 ! D19   D(4,3,5,6)             60.0041         estimate D2E/DX2                !
 ! D20   D(4,3,5,12)           173.4828         estimate D2E/DX2                !
 ! D21   D(4,3,5,13)           -68.2602         estimate D2E/DX2                !
 ! D22   D(10,3,5,6)           -57.7661         estimate D2E/DX2                !
 ! D23   D(10,3,5,12)           55.7126         estimate D2E/DX2                !
 ! D24   D(10,3,5,13)          173.9696         estimate D2E/DX2                !
 ! D25   D(3,5,6,14)           -87.0811         estimate D2E/DX2                !
 ! D26   D(12,5,6,14)          159.1725         estimate D2E/DX2                !
 ! D27   D(13,5,6,14)           41.1216         estimate D2E/DX2                !
 --------------------------------------------------------------------------------
 Trust Radius=3.00D-01 FncErr=1.00D-07 GrdErr=1.00D-07
 Number of steps in this run=    100 maximum allowed number of steps=    100.
 GradGradGradGradGradGradGradGradGradGradGradGradGradGradGradGradGradGrad

 Leave Link  103 at Wed Sep 20 14:33:41 2023, MaxMem=    33554432 cpu:         0.0
 (Enter /mnt/storage/apps/eb/software/gaussian/09/l202.exe)
                          Input orientation:                          
 ---------------------------------------------------------------------
 Center     Atomic      Atomic             Coordinates (Angstroms)
 Number     Number       Type             X           Y           Z
 ---------------------------------------------------------------------
      1          8           0        1.723679   -1.220316    0.184121
      2          6           0        1.363961    0.127060    0.134025
      3          6           0       -0.041585    0.290325   -0.426892
      4          8           0       -0.372886    1.620036   -0.466516
      5          6           0       -1.007473   -0.551928    0.381579
      6          8           0       -2.285278   -0.462784   -0.166430
      7          1           0        2.431044   -1.291128    0.891882
      8          1           0        1.416614    0.622529    1.124154
      9          1           0        2.042975    0.626406   -0.609852
     10          1           0       -0.102409   -0.105914   -1.462656
     11          1           0       -0.700257    2.000547    0.374045
     12          1           0       -0.688977   -1.618058    0.228880
     13          1           0       -0.976245   -0.340423    1.455786
     14          1           0       -2.803163    0.303648    0.178661
 ---------------------------------------------------------------------
                    Distance matrix (angstroms):
                    1          2          3          4          5
     1  O    0.000000
     2  C    1.395467   0.000000
     3  C    2.402401   1.522118   0.000000
     4  O    3.589779   2.367755   1.370935   0.000000
     5  C    2.818674   2.479114   1.515241   2.416484   0.000000
     6  O    4.094933   3.708792   2.381002   2.843490   1.393214
     7  H    1.003148   1.929837   3.217771   4.264053   3.553903
     8  H    2.091418   1.108430   2.154634   2.593754   2.794095
     9  H    2.035369   1.124171   2.119390   2.616148   3.417110
    10  H    2.699697   2.180346   1.110636   2.011058   2.102206
    11  H    4.035529   2.797956   2.000052   0.979032   2.570908
    12  H    2.445631   2.696106   2.119217   3.326972   1.123116
    13  H    3.111420   2.728032   2.194518   2.811172   1.095276
    14  H    4.776483   4.171103   2.827222   2.838200   1.999422
                    6          7          8          9         10
     6  O    0.000000
     7  H    4.904067   0.000000
     8  H    4.067864   2.178325   0.000000
     9  H    4.485168   2.466321   1.843670   0.000000
    10  H    2.563684   3.656086   3.087012   2.422032   0.000000
    11  H    2.978658   4.572562   2.634908   3.222055   2.857984
    12  H    2.009752   3.206398   3.202383   3.633821   2.343488
    13  H    2.088091   3.582101   2.600583   3.783822   3.055468
    14  H    0.987274   5.518054   4.336146   4.920465   3.186806
                   11         12         13         14
    11  H    0.000000
    12  H    3.621533   0.000000
    13  H    2.593545   1.794484   0.000000
    14  H    2.709217   2.857492   2.320238   0.000000
 Stoichiometry    C3H8O3
 Framework group  C1[X(C3H8O3)]
 Deg. of freedom    36
 Full point group                 C1      NOp   1
 Largest Abelian subgroup         C1      NOp   1
 Largest concise Abelian subgroup C1      NOp   1
                         Standard orientation:                         
 ---------------------------------------------------------------------
 Center     Atomic      Atomic             Coordinates (Angstroms)
 Number     Number       Type             X           Y           Z
 ---------------------------------------------------------------------
      1          8           0        2.023047   -0.825491   -0.158711
      2          6           0        1.417972    0.397519    0.133621
      3          6           0       -0.034200    0.404330   -0.322443
      4          8           0       -0.607334    1.613729   -0.025236
      5          6           0       -0.759511   -0.777465    0.288491
      6          8           0       -2.071838   -0.818858   -0.177482
      7          1           0        2.786154   -0.917097    0.485945
      8          1           0        1.458086    0.649336    1.212322
      9          1           0        1.930801    1.180845   -0.488607
     10          1           0       -0.104319    0.255981   -1.420891
     11          1           0       -0.930316    1.715427    0.893373
     12          1           0       -0.263106   -1.693716   -0.130385
     13          1           0       -0.681179   -0.819817    1.380141
     14          1           0       -2.692685   -0.272298    0.361528
 ---------------------------------------------------------------------
 Rotational constants (GHZ):      5.3807119      2.4809209      1.8228004
 Leave Link  202 at Wed Sep 20 14:33:41 2023, MaxMem=    33554432 cpu:         0.0
 (Enter /mnt/storage/apps/eb/software/gaussian/09/l301.exe)
 Standard basis: 6-31G(d) (6D, 7F)
 Ernie: Thresh=  0.10000D-02 Tol=  0.10000D-05 Strict=F.
 There are   106 symmetry adapted cartesian basis functions of A   symmetry.
 There are   106 symmetry adapted basis functions of A   symmetry.
   106 basis functions,   200 primitive gaussians,   106 cartesian basis functions
    25 alpha electrons       25 beta electrons
       nuclear repulsion energy       263.4685580392 Hartrees.
 IExCor=    0 DFT=F Ex=HF Corr=None ExCW=0 ScaHFX=  1.000000
 ScaDFX=  1.000000  1.000000  1.000000  1.000000 ScalE2=  1.000000  1.000000
 IRadAn=      0 IRanWt=     -1 IRanGd=            0 ICorTp=0 IEmpDi=  4
 NAtoms=   14 NActive=   14 NUniq=   14 SFac= 1.00D+00 NAtFMM=   60 NAOKFM=F Big=F
 Integral buffers will be    131072 words long.
 Raffenetti 1 integral format.
 Two-electron integral symmetry is turned on.
 Leave Link  301 at Wed Sep 20 14:33:41 2023, MaxMem=    33554432 cpu:         0.0
 (Enter /mnt/storage/apps/eb/software/gaussian/09/l302.exe)
 NPDir=0 NMtPBC=     1 NCelOv=     1 NCel=       1 NClECP=     1 NCelD=      1
         NCelK=      1 NCelE2=     1 NClLst=     1 CellRange=     0.0.
 One-electron integrals computed using PRISM.
 NBasis=   106 RedAO= T EigKep=  3.00D-03  NBF=   106
 NBsUse=   106 1.00D-06 EigRej= -1.00D+00 NBFU=   106
 Leave Link  302 at Wed Sep 20 14:33:42 2023, MaxMem=    33554432 cpu:         0.1
 (Enter /mnt/storage/apps/eb/software/gaussian/09/l303.exe)
 DipDrv:  MaxL=1.
 Leave Link  303 at Wed Sep 20 14:33:42 2023, MaxMem=    33554432 cpu:         0.0
 (Enter /mnt/storage/apps/eb/software/gaussian/09/l401.exe)
 ExpMin= 1.61D-01 ExpMax= 5.48D+03 ExpMxC= 8.25D+02 IAcc=1 IRadAn=         1 AccDes= 0.00D+00
 Harris functional with IExCor=  205 and IRadAn=       1 diagonalized for initial guess.
 HarFok:  IExCor=  205 AccDes= 0.00D+00 IRadAn=         1 IDoV= 1 UseB2=F ITyADJ=14
 ICtDFT=  3500011 ScaDFX=  1.000000  1.000000  1.000000  1.000000
 FoFCou: FMM=F IPFlag=           0 FMFlag=      100000 FMFlg1=           0
         NFxFlg=           0 DoJE=T BraDBF=F KetDBF=T FulRan=T
         wScrn=  0.000000 ICntrl=     500 IOpCl=  0 I1Cent=   200000004 NGrid=           0
         NMat0=    1 NMatS0=      1 NMatT0=    0 NMatD0=    1 NMtDS0=    0 NMtDT0=    0
 Petite list used in FoFCou.
 Harris En= -343.188620910227    
 JPrj=0 DoOrth=F DoCkMO=F.
 Leave Link  401 at Wed Sep 20 14:33:42 2023, MaxMem=    33554432 cpu:         0.3
 (Enter /mnt/storage/apps/eb/software/gaussian/09/l508.exe)
 Direct SCF.
 Tight linear equation convergence will be used.
 RHF wavefunction.
 Quadratic Convergence SCF Method.
 Line search only if initial step raises energy.
 Integral symmetry usage will be decided dynamically.
 ReadGW:  IGet=1 IStart=         402 Next=         402 LGW=           0.
 Keep R1 ints in memory in canonical form, NReq=17056541.
 FoFCou: FMM=F IPFlag=           0 FMFlag=           0 FMFlg1=           0
         NFxFlg=           0 DoJE=F BraDBF=F KetDBF=F FulRan=T
         wScrn=  0.000000 ICntrl=     600 IOpCl=  0 I1Cent=           0 NGrid=           0
         NMat0=    1 NMatS0=   5671 NMatT0=    0 NMatD0=    1 NMtDS0=    0 NMtDT0=    0
 Symmetry not used in FoFCou.
 Iteration   1 EE= -342.532521954740                                    Grad=9.397D-01 Max rot=    8.4495 deg.
 Gradient too large for Newton-Raphson -- use scaled steepest descent instead.
 Alpha Gap=     0.592 HL deriv= 1.21D-02
     ILin= 1 X=0.000D+00 Y=-3.425325219547D+02 DE= 0.00D+00 F= -7.04D-01
     ILin= 2 X=3.000D-01 Y=-3.426980040200D+02 DE=-1.65D-01 F= -3.98D-01
     ILin= 3 X=5.000D-01 Y=-3.427570692006D+02 DE=-2.25D-01 F= -1.92D-01
     ILin= 4 X=9.000D-01 Y=-3.427507576567D+02 DE=-2.18D-01 F=  2.24D-01
     An  expanding polynomial of degree  4 produced  0.6851
 Iteration   2 EE= -342.774834494727     Delta-E=       -0.242312539987 Grad=2.957D-01 Max rot=    3.6332 deg.
 Gradient too large for Newton-Raphson -- use scaled steepest descent instead.
 Alpha Gap=     0.655 HL deriv= 3.63D-03
     ILin= 1 X=0.000D+00 Y=-3.427748344947D+02 DE= 0.00D+00 F= -2.75D-02
     ILin= 2 X=5.000D-01 Y=-3.427847147765D+02 DE=-9.88D-03 F= -1.21D-02
     ILin= 3 X=9.000D-01 Y=-3.427870969809D+02 DE=-1.23D-02 F=  1.61D-04
     ILin= 4 X=1.800D+00 Y=-3.427746233276D+02 DE= 2.11D-04 F=  2.75D-02
     An  expanding polynomial of degree  4 produced  0.8947
     Minimum is close to point  3 DX= -5.26D-03 DF= -4.23D-07 DXR=  5.88D-03 DFR=  3.45D-05 which will be used.
 Iteration   3 EE= -342.787096980867     Delta-E=       -0.012262486140 Grad=6.429D-02 Max rot=    0.3848 deg.
 Gradient too large for Newton-Raphson -- use scaled steepest descent instead.
 Alpha Gap=     0.651 HL deriv= 9.79D-04
     ILin= 1 X=0.000D+00 Y=-3.427870969809D+02 DE= 0.00D+00 F= -3.72D-03
     ILin= 2 X=8.000D-01 Y=-3.427883730100D+02 DE=-1.28D-03 F=  5.25D-04
     Accept linear search using points  1 and  2.
     An  expanding polynomial of degree  2 produced  0.6479
 Iteration   4 EE= -342.788391622317     Delta-E=       -0.001294641450 Grad=2.213D-02 Max rot=    0.1840 deg.
 Gradient too large for Newton-Raphson -- use scaled steepest descent instead.
 Alpha Gap=     0.655 HL deriv= 2.44D-04
     ILin= 1 X=0.000D+00 Y=-3.427883916223D+02 DE= 0.00D+00 F= -3.77D-04
     ILin= 2 X=8.000D-01 Y=-3.427885903761D+02 DE=-1.99D-04 F= -1.20D-04
     Reject lnstep minimum 1.772D+00 FVal=-3.427887050746D+02 Lims=  0.00D+00  8.00D-01
     ILin= 3 X=1.500D+00 Y=-3.427885953764D+02 DE=-2.04D-04 F=  1.05D-04
     Accept linear search using points  2 and  3.
     An  expanding polynomial of degree  3 produced  1.1622
 Iteration   5 EE= -342.788612640857     Delta-E=       -0.000221018540 Grad=7.654D-03 Max rot=    0.0365 deg.
 QCNR:  CnvC1=6.36D-09 CnvC2=6.36D-08
 LinEq1:  Iter=  0 NonCon=     1 RMS=7.79D-05 Max=6.77D-04 NDo=     1
 AX will form     1 AO Fock derivatives at one time.
 LinEq1:  Iter=  1 NonCon=     1 RMS=3.44D-05 Max=2.45D-04 NDo=     1
 LinEq1:  Iter=  2 NonCon=     1 RMS=3.04D-06 Max=4.08D-05 NDo=     1
 LinEq1:  Iter=  3 NonCon=     1 RMS=7.67D-07 Max=7.53D-06 NDo=     1
 LinEq1:  Iter=  4 NonCon=     1 RMS=2.51D-07 Max=2.78D-06 NDo=     1
 LinEq1:  Iter=  5 NonCon=     1 RMS=6.01D-08 Max=4.47D-07 NDo=     1
 LinEq1:  Iter=  6 NonCon=     1 RMS=2.08D-08 Max=1.71D-07 NDo=     1
 LinEq1:  Iter=  7 NonCon=     0 RMS=4.70D-09 Max=4.20D-08 NDo=     1
 Linear equations converged to 6.364D-09 6.364D-08 after     7 iterations.
 Angle between quadratic step and gradient=  42.21 degrees.
     ILin= 1 X=0.000D+00 Y=-3.427886126409D+02 DE= 0.00D+00 F= -5.47D-05
     ILin= 2 X=1.000D+00 Y=-3.427886400010D+02 DE=-2.74D-05 F=  1.19D-08
     Accept linear search using points  1 and  2.
     An  expanding polynomial of degree  2 produced  0.9998
     Minimum is close to point  2 DX= -2.17D-04 DF= -1.31D-12 DXR=  2.17D-04 DFR=  4.78D-08 which will be used.
 Iteration   6 EE= -342.788640000953     Delta-E=       -0.000027360096 Grad=3.734D-06 Max rot=    0.0000 deg.
 QCNR:  CnvC1=3.73D-11 CnvC2=3.73D-10
 LinEq1:  Iter=  0 NonCon=     1 RMS=5.28D-08 Max=5.41D-07 NDo=     1
 LinEq1:  Iter=  1 NonCon=     1 RMS=1.14D-08 Max=8.91D-08 NDo=     1
 LinEq1:  Iter=  2 NonCon=     1 RMS=3.65D-09 Max=6.10D-08 NDo=     1
 LinEq1:  Iter=  3 NonCon=     1 RMS=9.95D-10 Max=8.01D-09 NDo=     1
 LinEq1:  Iter=  4 NonCon=     1 RMS=3.14D-10 Max=2.16D-09 NDo=     1
 LinEq1:  Iter=  5 NonCon=     1 RMS=6.10D-11 Max=3.47D-10 NDo=     1
 LinEq1:  Iter=  6 NonCon=     0 RMS=1.20D-11 Max=8.30D-11 NDo=     1
 Linear equations converged to 3.734D-11 3.734D-10 after     6 iterations.
 Angle between quadratic step and gradient=  30.68 degrees.
     ILin= 1 X=0.000D+00 Y=-3.427886400010D+02 DE= 0.00D+00 F= -2.90D-11
     ILin= 2 X=1.000D+00 Y=-3.427886400010D+02 DE=-1.40D-11
 Iteration   7 EE= -342.788640000967     Delta-E=       -0.000000000014 Grad=2.155D-09 Max rot=    0.0000 deg.
 Rotation gradient small -- convergence achieved.
 SCF Done:  E(RHF) =  -342.788640001     a.u. after    7 cycles
            Convg  =    0.2155D-08                    28 Fock formations.
              S**2 =  0.0000                  -V/T =  2.0023
 Leave Link  508 at Wed Sep 20 14:33:43 2023, MaxMem=    33554432 cpu:         1.5
 (Enter /mnt/storage/apps/eb/software/gaussian/09/l601.exe)
 Copying SCF densities to generalized density rwf, IOpCl= 0 IROHF=0.

 **********************************************************************

            Population analysis using the SCF density.

 **********************************************************************

 Orbital symmetries:
       Occupied  (A) (A) (A) (A) (A) (A) (A) (A) (A) (A) (A) (A)
                 (A) (A) (A) (A) (A) (A) (A) (A) (A) (A) (A) (A)
                 (A)
       Virtual   (A) (A) (A) (A) (A) (A) (A) (A) (A) (A) (A) (A)
                 (A) (A) (A) (A) (A) (A) (A) (A) (A) (A) (A) (A)
                 (A) (A) (A) (A) (A) (A) (A) (A) (A) (A) (A) (A)
                 (A) (A) (A) (A) (A) (A) (A) (A) (A) (A) (A) (A)
                 (A) (A) (A) (A) (A) (A) (A) (A) (A) (A) (A) (A)
                 (A) (A) (A) (A) (A) (A) (A) (A) (A) (A) (A) (A)
                 (A) (A) (A) (A) (A) (A) (A) (A) (A)
 The electronic state is 1-A.
 Alpha  occ. eigenvalues --  -20.57297 -20.56730 -20.55786 -11.27778 -11.27226
 Alpha  occ. eigenvalues --  -11.26944  -1.38607  -1.36411  -1.34869  -1.02246
 Alpha  occ. eigenvalues --   -0.90892  -0.81852  -0.71311  -0.70906  -0.66560
 Alpha  occ. eigenvalues --   -0.63988  -0.62333  -0.61065  -0.55731  -0.53143
 Alpha  occ. eigenvalues --   -0.50949  -0.48528  -0.45827  -0.44858  -0.40035
 Alpha virt. eigenvalues --    0.19284   0.20310   0.25213   0.27307   0.28630
 Alpha virt. eigenvalues --    0.29916   0.32956   0.36035   0.38131   0.43923
 Alpha virt. eigenvalues --    0.45092   0.47764   0.49351   0.75858   0.78954
 Alpha virt. eigenvalues --    0.81826   0.82083   0.85711   0.90148   0.91243
 Alpha virt. eigenvalues --    0.94505   1.00755   1.05135   1.06529   1.07087
 Alpha virt. eigenvalues --    1.09056   1.11194   1.14371   1.16480   1.17289
 Alpha virt. eigenvalues --    1.17768   1.22526   1.25214   1.27968   1.30429
 Alpha virt. eigenvalues --    1.33766   1.34505   1.43459   1.46705   1.53385
 Alpha virt. eigenvalues --    1.57424   1.64223   1.70410   1.78666   1.78967
 Alpha virt. eigenvalues --    1.86530   1.89971   1.91864   1.99111   2.02046
 Alpha virt. eigenvalues --    2.04360   2.11395   2.14406   2.18469   2.24943
 Alpha virt. eigenvalues --    2.31306   2.40985   2.41721   2.43431   2.45722
 Alpha virt. eigenvalues --    2.50222   2.54881   2.63755   2.67360   2.69195
 Alpha virt. eigenvalues --    2.76100   2.80260   2.82400   2.91804   2.92681
 Alpha virt. eigenvalues --    3.00155   3.15881   3.24186   3.27461   3.31369
 Alpha virt. eigenvalues --    4.13555   4.22548   4.32486   4.65250   4.75986
 Alpha virt. eigenvalues --    4.97128
          Condensed to atoms (all electrons):
               1          2          3          4          5          6
     1  O    8.419555   0.169433  -0.047434   0.001470   0.003804   0.000038
     2  C    0.169433   4.924828   0.334170  -0.053617  -0.077690   0.003963
     3  C   -0.047434   0.334170   4.876687   0.192680   0.350945  -0.058077
     4  O    0.001470  -0.053617   0.192680   8.419630  -0.041984   0.001641
     5  C    0.003804  -0.077690   0.350945  -0.041984   4.888861   0.199029
     6  O    0.000038   0.003963  -0.058077   0.001641   0.199029   8.404912
     7  H    0.254448  -0.020679   0.004720  -0.000107   0.000160   0.000002
     8  H   -0.033013   0.380385  -0.038291   0.003650  -0.008764  -0.000062
     9  H   -0.043190   0.403134  -0.054242   0.004528   0.006534  -0.000068
    10  H    0.003260  -0.045586   0.408433  -0.037468  -0.047995   0.001506
    11  H   -0.000052  -0.001576  -0.027101   0.255492  -0.005403   0.001034
    12  H    0.004069  -0.000737  -0.047985   0.003114   0.401591  -0.037699
    13  H    0.000141   0.001348  -0.051288  -0.001379   0.382988  -0.035068
    14  H   -0.000006  -0.000046  -0.004348   0.003414  -0.018870   0.253952
               7          8          9         10         11         12
     1  O    0.254448  -0.033013  -0.043190   0.003260  -0.000052   0.004069
     2  C   -0.020679   0.380385   0.403134  -0.045586  -0.001576  -0.000737
     3  C    0.004720  -0.038291  -0.054242   0.408433  -0.027101  -0.047985
     4  O   -0.000107   0.003650   0.004528  -0.037468   0.255492   0.003114
     5  C    0.000160  -0.008764   0.006534  -0.047995  -0.005403   0.401591
     6  O    0.000002  -0.000062  -0.000068   0.001506   0.001034  -0.037699
     7  H    0.330278  -0.009613  -0.000036  -0.000261   0.000001  -0.000021
     8  H   -0.009613   0.602939  -0.033825   0.004668   0.002598   0.000664
     9  H   -0.000036  -0.033825   0.565527  -0.006097  -0.000424  -0.000132
    10  H   -0.000261   0.004668  -0.006097   0.520113   0.005297  -0.002030
    11  H    0.000001   0.002598  -0.000424   0.005297   0.334186   0.000179
    12  H   -0.000021   0.000664  -0.000132  -0.002030   0.000179   0.501047
    13  H   -0.000103   0.003398  -0.000171   0.004975   0.003222  -0.027155
    14  H    0.000000  -0.000006  -0.000001  -0.000362   0.000463   0.004866
              13         14
     1  O    0.000141  -0.000006
     2  C    0.001348  -0.000046
     3  C   -0.051288  -0.004348
     4  O   -0.001379   0.003414
     5  C    0.382988  -0.018870
     6  O   -0.035068   0.253952
     7  H   -0.000103   0.000000
     8  H    0.003398  -0.000006
     9  H   -0.000171  -0.000001
    10  H    0.004975  -0.000362
    11  H    0.003222   0.000463
    12  H   -0.027155   0.004866
    13  H    0.600288  -0.006434
    14  H   -0.006434   0.333313
 Mulliken charges:
               1
     1  O   -0.732524
     2  C   -0.017332
     3  C    0.161129
     4  O   -0.751064
     5  C   -0.033206
     6  O   -0.735103
     7  H    0.441213
     8  H    0.125271
     9  H    0.158461
    10  H    0.191546
    11  H    0.432083
    12  H    0.200227
    13  H    0.125236
    14  H    0.434064
 Sum of Mulliken charges =   0.00000
 Mulliken charges with hydrogens summed into heavy atoms:
               1
     1  O   -0.291311
     2  C    0.266400
     3  C    0.352675
     4  O   -0.318981
     5  C    0.292257
     6  O   -0.301039
 Electronic spatial extent (au):  <R**2>=            661.3719
 Charge=              0.0000 electrons
 Dipole moment (field-independent basis, Debye):
    X=              1.0400    Y=              0.8200    Z=              3.8541  Tot=              4.0753
 Quadrupole moment (field-independent basis, Debye-Ang):
   XX=            -31.8261   YY=            -41.6217   ZZ=            -34.0180
   XY=             -2.6155   XZ=             -1.3657   YZ=              0.9197
 Traceless Quadrupole moment (field-independent basis, Debye-Ang):
   XX=              3.9959   YY=             -5.7998   ZZ=              1.8039
   XY=             -2.6155   XZ=             -1.3657   YZ=              0.9197
 Octapole moment (field-independent basis, Debye-Ang**2):
  XXX=              6.3766  YYY=             -3.6572  ZZZ=              1.9336  XYY=              2.8423
  XXY=              6.0351  XXZ=             20.2696  XZZ=             -1.5647  YZZ=              3.1141
  YYZ=              6.3755  XYZ=             -5.5050
 Hexadecapole moment (field-independent basis, Debye-Ang**3):
 XXXX=           -371.8142 YYYY=           -240.0282 ZZZZ=            -64.4228 XXXY=            -40.3445
 XXXZ=              4.1433 YYYX=            -11.7431 YYYZ=             11.0741 ZZZX=             -1.2397
 ZZZY=              3.4967 XXYY=           -124.2682 XXZZ=            -86.2473 YYZZ=            -44.6710
 XXYZ=             -9.9998 YYXZ=             -4.2757 ZZXY=             -5.4227
 N-N= 2.634685580392D+02 E-N=-1.335069875828D+03  KE= 3.419928935841D+02
 No NMR shielding tensors so no spin-rotation constants.
 Leave Link  601 at Wed Sep 20 14:33:43 2023, MaxMem=    33554432 cpu:         0.1
 (Enter /mnt/storage/apps/eb/software/gaussian/09/l701.exe)
 Compute integral first derivatives.
 ... and contract with generalized density number  0.
 Leave Link  701 at Wed Sep 20 14:33:44 2023, MaxMem=    33554432 cpu:         0.1
 (Enter /mnt/storage/apps/eb/software/gaussian/09/l702.exe)
 L702 exits ... SP integral derivatives will be done elsewhere.
 Leave Link  702 at Wed Sep 20 14:33:44 2023, MaxMem=    33554432 cpu:         0.0
 (Enter /mnt/storage/apps/eb/software/gaussian/09/l703.exe)
 Compute integral first derivatives, UseDBF=F ICtDFT=           0.
 Integral derivatives from FoFJK, PRISM(SPDF).
 Calling FoFJK, ICntrl=      2127 FMM=F ISym2X=0 I1Cent= 0 IOpClX= 0 NMat=1 NMatS=1 NMatT=0.
 FoFJK:  IHMeth= 1 ICntrl=    2127 DoSepK=F KAlg= 0 I1Cent=   0 FoldK=F
 IRaf=         0 NMat=   1 IRICut=       1 DoRegI=T DoRafI=F ISym2E= 0.
 FoFCou: FMM=F IPFlag=           0 FMFlag=      100000 FMFlg1=         800
         NFxFlg=           0 DoJE=F BraDBF=F KetDBF=F FulRan=T
         wScrn=  0.000000 ICntrl=    2127 IOpCl=  0 I1Cent=           0 NGrid=           0
         NMat0=    1 NMatS0=      1 NMatT0=    0 NMatD0=    1 NMtDS0=    0 NMtDT0=    0
 Symmetry not used in FoFCou.
 Leave Link  703 at Wed Sep 20 14:33:45 2023, MaxMem=    33554432 cpu:         1.6
 (Enter /mnt/storage/apps/eb/software/gaussian/09/l716.exe)
 Dipole        = 4.09156501D-01 3.22607352D-01 1.51632136D+00
 ***** Axes restored to original set *****
 -------------------------------------------------------------------
 Center     Atomic                   Forces (Hartrees/Bohr)
 Number     Number              X              Y              Z
 -------------------------------------------------------------------
      1        8           0.038055974   -0.006715480    0.050848036
      2        6           0.016944376    0.021979767   -0.030385026
      3        6           0.002139885   -0.032762186    0.008064265
      4        8          -0.017627652    0.043519847    0.014009329
      5        6           0.005548986   -0.031674649   -0.014069516
      6        8          -0.036445654    0.026934522    0.017202773
      7        1          -0.035917637   -0.003139031   -0.040824235
      8        1           0.001970143   -0.005742413   -0.013093835
      9        1          -0.010159442   -0.000548777    0.024881341
     10        1           0.004392929    0.011151410    0.016047461
     11        1           0.014502304   -0.020988402   -0.024230352
     12        1          -0.009033374    0.025355761    0.009858179
     13        1          -0.001328143    0.002626872   -0.004068877
     14        1           0.026957304   -0.029997241   -0.014239542
 -------------------------------------------------------------------
 Cartesian Forces:  Max     0.050848036 RMS     0.022419585
 Leave Link  716 at Wed Sep 20 14:33:45 2023, MaxMem=    33554432 cpu:         0.0
 (Enter /mnt/storage/apps/eb/software/gaussian/09/l103.exe)

 GradGradGradGradGradGradGradGradGradGradGradGradGradGradGradGradGradGrad
 Berny optimization.
 FormGI is forming the generalized inverse of G from B-inverse, IUseBI=4.
 Internal  Forces:  Max     0.053908714 RMS     0.012851258
 Search for a local minimum.
 Step number   1 out of a maximum of  100
 All quantities printed in internal units (Hartrees-Bohrs-Radians)
 RMS Force = .12851D-01 SwitMx=.10000D-02 MixMth= 1
 Mixed Optimization -- RFO/linear search
 Second derivative matrix not updated -- first step.
 ITU=  0
     Eigenvalues ---    0.00473   0.00564   0.01752   0.01782   0.02076
     Eigenvalues ---    0.04572   0.04929   0.05057   0.05218   0.06283
     Eigenvalues ---    0.06340   0.07158   0.11296   0.11499   0.13832
     Eigenvalues ---    0.13908   0.16000   0.16000   0.16000   0.16565
     Eigenvalues ---    0.20357   0.22033   0.22206   0.30163   0.30830
     Eigenvalues ---    0.31145   0.31250   0.32533   0.32767   0.34210
     Eigenvalues ---    0.46380   0.46764   0.47139   0.49998   0.50797
     Eigenvalues ---    0.51573
 RFO step:  Lambda=-2.89142927D-02 EMin= 4.73370033D-03
 Linear search not attempted -- first point.
 Iteration  1 RMS(Cart)=  0.05507304 RMS(Int)=  0.00256245
 Iteration  2 RMS(Cart)=  0.00248434 RMS(Int)=  0.00063611
 Iteration  3 RMS(Cart)=  0.00000681 RMS(Int)=  0.00063607
 Iteration  4 RMS(Cart)=  0.00000001 RMS(Int)=  0.00063607
 ITry= 1 IFail=0 DXMaxC= 1.48D-01 DCOld= 1.00D+10 DXMaxT= 3.00D-01 DXLimC= 3.00D+00 Rises=F
 Variable       Old X    -DE/DX   Delta X   Delta X   Delta X     New X
                                 (Linear)    (Quad)   (Total)
    R1        2.63705   0.01043   0.00000   0.02116   0.02116   2.65821
    R2        1.89567  -0.05391   0.00000  -0.10775  -0.10775   1.78792
    R3        2.87639   0.00627   0.00000   0.01898   0.01898   2.89537
    R4        2.09463  -0.01417   0.00000  -0.03974  -0.03974   2.05489
    R5        2.12437  -0.02284   0.00000  -0.06712  -0.06712   2.05726
    R6        2.59069   0.02290   0.00000   0.04266   0.04266   2.63335
    R7        2.86339   0.01003   0.00000   0.02976   0.02976   2.89315
    R8        2.09880  -0.01918   0.00000  -0.05416  -0.05416   2.04464
    R9        1.85010  -0.03381   0.00000  -0.06208  -0.06208   1.78803
   R10        2.63279   0.00734   0.00000   0.01478   0.01478   2.64758
   R11        2.12238  -0.02797   0.00000  -0.08193  -0.08193   2.04045
   R12        2.06977  -0.00352   0.00000  -0.00949  -0.00949   2.06028
   R13        1.86568  -0.04241   0.00000  -0.08018  -0.08018   1.78550
    A1        1.84965   0.01409   0.00000   0.07458   0.07458   1.92423
    A2        1.93353  -0.00419   0.00000  -0.00971  -0.01058   1.92295
    A3        1.96848  -0.00137   0.00000  -0.02573  -0.02591   1.94257
    A4        1.87228   0.00500   0.00000   0.05510   0.05421   1.92649
    A5        1.90191   0.00132   0.00000  -0.00784  -0.00808   1.89383
    A6        1.84031   0.00651   0.00000   0.05095   0.05023   1.89054
    A7        1.94319  -0.00684   0.00000  -0.05764  -0.05707   1.88612
    A8        1.91542  -0.00420   0.00000  -0.01646  -0.01709   1.89833
    A9        1.90963   0.01221   0.00000   0.06372   0.06364   1.97327
   A10        1.93475  -0.00473   0.00000  -0.03049  -0.03178   1.90297
   A11        1.98288  -0.00394   0.00000  -0.00934  -0.00930   1.97357
   A12        1.88163   0.00048   0.00000  -0.02600  -0.02666   1.85497
   A13        1.83835  -0.00005   0.00000   0.01686   0.01720   1.85554
   A14        2.01858  -0.01749   0.00000  -0.09260  -0.09260   1.92598
   A15        1.91687   0.01106   0.00000   0.04519   0.04394   1.96081
   A16        1.84870   0.00555   0.00000   0.05267   0.05144   1.90014
   A17        1.97989  -0.00777   0.00000  -0.05035  -0.04978   1.93012
   A18        1.84144  -0.00244   0.00000   0.01342   0.01067   1.85210
   A19        1.98184  -0.00500   0.00000  -0.03891  -0.03869   1.94315
   A20        1.88448  -0.00060   0.00000  -0.01204  -0.01119   1.87329
   A21        1.97500  -0.00886   0.00000  -0.04689  -0.04689   1.92812
    D1       -2.72254   0.00220   0.00000   0.01100   0.01114  -2.71139
    D2       -0.58536  -0.00017   0.00000  -0.02481  -0.02437  -0.60973
    D3        1.56052  -0.00617   0.00000  -0.07534  -0.07592   1.48460
    D4        3.14148  -0.00121   0.00000   0.00212   0.00170  -3.14000
    D5        0.95479  -0.00176   0.00000  -0.01870  -0.01914   0.93565
    D6       -1.06516  -0.00622   0.00000  -0.05943  -0.05908  -1.12423
    D7        0.96600   0.00246   0.00000   0.04681   0.04643   1.01243
    D8       -1.22069   0.00191   0.00000   0.02599   0.02559  -1.19510
    D9        3.04255  -0.00255   0.00000  -0.01474  -0.01435   3.02820
   D10       -1.12161   0.00623   0.00000   0.09044   0.09049  -1.03112
   D11        2.97489   0.00568   0.00000   0.06961   0.06964   3.04453
   D12        0.95494   0.00122   0.00000   0.02888   0.02971   0.98465
   D13       -1.43816  -0.00466   0.00000  -0.01611  -0.01586  -1.45401
   D14        0.70582   0.00528   0.00000   0.04784   0.04753   0.75335
   D15        2.73607   0.00327   0.00000   0.04646   0.04651   2.78259
   D16       -3.08876  -0.00233   0.00000  -0.01906  -0.02009  -3.10885
   D17       -1.10818   0.00288   0.00000   0.04488   0.04554  -1.06264
   D18        0.95579   0.00140   0.00000   0.03611   0.03564   0.99144
   D19        1.04727  -0.00326   0.00000  -0.03893  -0.03985   1.00742
   D20        3.02785   0.00195   0.00000   0.02502   0.02577   3.05362
   D21       -1.19137   0.00047   0.00000   0.01625   0.01588  -1.17548
   D22       -1.00821  -0.00169   0.00000  -0.01299  -0.01328  -1.02148
   D23        0.97237   0.00353   0.00000   0.05096   0.05235   1.02472
   D24        3.03634   0.00204   0.00000   0.04218   0.04246   3.07880
   D25       -1.51985   0.00685   0.00000   0.08589   0.08619  -1.43367
   D26        2.77808  -0.00343   0.00000  -0.00294  -0.00318   2.77490
   D27        0.71771   0.00160   0.00000   0.02441   0.02436   0.74207
         Item               Value     Threshold  Converged?
 Maximum Force            0.053909     0.000015     NO 
 RMS     Force            0.012851     0.000010     NO 
 Maximum Displacement     0.148145     0.000060     NO 
 RMS     Displacement     0.054165     0.000040     NO 
 Predicted change in Energy=-1.642191D-02
 Lowest energy point so far.  Saving SCF results.
 GradGradGradGradGradGradGradGradGradGradGradGradGradGradGradGradGradGrad

 Leave Link  103 at Wed Sep 20 14:33:45 2023, MaxMem=    33554432 cpu:         0.0
 (Enter /mnt/storage/apps/eb/software/gaussian/09/l202.exe)
                          Input orientation:                          
 ---------------------------------------------------------------------
 Center     Atomic      Atomic             Coordinates (Angstroms)
 Number     Number       Type             X           Y           Z
 ---------------------------------------------------------------------
      1          8           0        1.770403   -1.205417    0.185676
      2          6           0        1.393446    0.148005    0.115973
      3          6           0       -0.037824    0.271192   -0.416767
      4          8           0       -0.379639    1.620845   -0.475672
      5          6           0       -1.045642   -0.569236    0.371842
      6          8           0       -2.341370   -0.478548   -0.153298
      7          1           0        2.451257   -1.322854    0.832054
      8          1           0        1.439867    0.621844    1.093605
      9          1           0        2.056231    0.692093   -0.554735
     10          1           0       -0.068054   -0.094100   -1.434766
     11          1           0       -0.677196    1.922152    0.370458
     12          1           0       -0.765118   -1.609426    0.299770
     13          1           0       -1.026017   -0.299982    1.428143
     14          1           0       -2.770344    0.303433    0.158505
 ---------------------------------------------------------------------
                    Distance matrix (angstroms):
                    1          2          3          4          5
     1  O    0.000000
     2  C    1.406665   0.000000
     3  C    2.411016   1.532162   0.000000
     4  O    3.612177   2.379734   1.393510   0.000000
     5  C    2.893008   2.555201   1.530987   2.440962   0.000000
     6  O    4.189262   3.796567   2.436770   2.891326   1.401037
     7  H    0.946128   1.948118   3.208748   4.288296   3.606666
     8  H    2.066996   1.087402   2.141903   2.602159   2.849100
     9  H    2.056806   1.088653   2.140387   2.608121   3.474351
    10  H    2.690870   2.144618   1.081977   1.989469   2.108380
    11  H    3.975748   2.738598   1.937573   0.946182   2.518485
    12  H    2.570040   2.789577   2.139885   3.344333   1.079762
    13  H    3.191159   2.788598   2.169437   2.780628   1.090254
    14  H    4.784950   4.166907   2.792605   2.802361   1.944648
                    6          7          8          9         10
     6  O    0.000000
     7  H    4.965183   0.000000
     8  H    4.130785   2.207526   0.000000
     9  H    4.568418   2.477750   1.761211   0.000000
    10  H    2.637788   3.604891   3.029697   2.430049   0.000000
    11  H    2.967685   4.531044   2.587605   3.136981   2.774015
    12  H    1.992167   3.272692   3.235846   3.739943   2.406393
    13  H    2.064702   3.673284   2.653726   3.796876   3.025942
    14  H    0.944846   5.510317   4.324543   4.894445   3.162106
                   11         12         13         14
    11  H    0.000000
    12  H    3.533380   0.000000
    13  H    2.485609   1.748124   0.000000
    14  H    2.654514   2.774873   2.240260   0.000000
 Stoichiometry    C3H8O3
 Framework group  C1[X(C3H8O3)]
 Deg. of freedom    36
 Full point group                 C1      NOp   1
 RotChk:  IX=0 Diff= 3.89D-02
 Largest Abelian subgroup         C1      NOp   1
 Largest concise Abelian subgroup C1      NOp   1
                         Standard orientation:                         
 ---------------------------------------------------------------------
 Center     Atomic      Atomic             Coordinates (Angstroms)
 Number     Number       Type             X           Y           Z
 ---------------------------------------------------------------------
      1          8           0        2.046711   -0.855404   -0.152655
      2          6           0        1.454755    0.389625    0.126979
      3          6           0       -0.012448    0.388257   -0.314420
      4          8           0       -0.568426    1.633155   -0.026341
      5          6           0       -0.813929   -0.777070    0.271723
      6          8           0       -2.141951   -0.787966   -0.174534
      7          1           0        2.782339   -1.004979    0.423224
      8          1           0        1.495316    0.616533    1.189670
      9          1           0        1.972264    1.184146   -0.407891
     10          1           0       -0.057283    0.277519   -1.389781
     11          1           0       -0.848499    1.667407    0.876790
     12          1           0       -0.377070   -1.705480   -0.064572
     13          1           0       -0.761465   -0.769092    1.360684
     14          1           0       -2.666535   -0.189210    0.334424
 ---------------------------------------------------------------------
 Rotational constants (GHZ):      5.3773513      2.3947250      1.7676355
 Leave Link  202 at Wed Sep 20 14:33:45 2023, MaxMem=    33554432 cpu:         0.0
 (Enter /mnt/storage/apps/eb/software/gaussian/09/l301.exe)
 Standard basis: 6-31G(d) (6D, 7F)
 Ernie: Thresh=  0.10000D-02 Tol=  0.10000D-05 Strict=F.
 There are   106 symmetry adapted cartesian basis functions of A   symmetry.
 There are   106 symmetry adapted basis functions of A   symmetry.
   106 basis functions,   200 primitive gaussians,   106 cartesian basis functions
    25 alpha electrons       25 beta electrons
       nuclear repulsion energy       262.1588234026 Hartrees.
 IExCor=    0 DFT=F Ex=HF Corr=None ExCW=0 ScaHFX=  1.000000
 ScaDFX=  1.000000  1.000000  1.000000  1.000000 ScalE2=  1.000000  1.000000
 IRadAn=      0 IRanWt=     -1 IRanGd=            0 ICorTp=0 IEmpDi=  4
 NAtoms=   14 NActive=   14 NUniq=   14 SFac= 1.00D+00 NAtFMM=   60 NAOKFM=F Big=F
 Integral buffers will be    131072 words long.
 Raffenetti 1 integral format.
 Two-electron integral symmetry is turned on.
 Leave Link  301 at Wed Sep 20 14:33:45 2023, MaxMem=    33554432 cpu:         0.0
 (Enter /mnt/storage/apps/eb/software/gaussian/09/l302.exe)
 NPDir=0 NMtPBC=     1 NCelOv=     1 NCel=       1 NClECP=     1 NCelD=      1
         NCelK=      1 NCelE2=     1 NClLst=     1 CellRange=     0.0.
 One-electron integrals computed using PRISM.
 NBasis=   106 RedAO= T EigKep=  3.26D-03  NBF=   106
 NBsUse=   106 1.00D-06 EigRej= -1.00D+00 NBFU=   106
 Leave Link  302 at Wed Sep 20 14:33:45 2023, MaxMem=    33554432 cpu:         0.1
 (Enter /mnt/storage/apps/eb/software/gaussian/09/l303.exe)
 DipDrv:  MaxL=1.
 Leave Link  303 at Wed Sep 20 14:33:45 2023, MaxMem=    33554432 cpu:         0.0
 (Enter /mnt/storage/apps/eb/software/gaussian/09/l401.exe)
 Initial guess from the checkpoint file:  "/scratch/nca121/18446470/Gau-6935.chk"
 B after Tr=     0.000000    0.000000    0.000000
         Rot=    0.999943   -0.000712    0.000865    0.010660 Ang=  -1.23 deg.
 Guess basis will be translated and rotated to current coordinates.
 JPrj=2 DoOrth=T DoCkMO=T.
 Generating alternative initial guess.
 ExpMin= 1.61D-01 ExpMax= 5.48D+03 ExpMxC= 8.25D+02 IAcc=1 IRadAn=         1 AccDes= 0.00D+00
 Harris functional with IExCor=  205 and IRadAn=       1 diagonalized for initial guess.
 HarFok:  IExCor=  205 AccDes= 0.00D+00 IRadAn=         1 IDoV= 1 UseB2=F ITyADJ=14
 ICtDFT=  3500011 ScaDFX=  1.000000  1.000000  1.000000  1.000000
 FoFCou: FMM=F IPFlag=           0 FMFlag=      100000 FMFlg1=           0
         NFxFlg=           0 DoJE=T BraDBF=F KetDBF=T FulRan=T
         wScrn=  0.000000 ICntrl=     500 IOpCl=  0 I1Cent=   200000004 NGrid=           0
         NMat0=    1 NMatS0=      1 NMatT0=    0 NMatD0=    1 NMtDS0=    0 NMtDT0=    0
 Petite list used in FoFCou.
 Harris En= -343.195833918656    
 Leave Link  401 at Wed Sep 20 14:33:46 2023, MaxMem=    33554432 cpu:         0.4
 (Enter /mnt/storage/apps/eb/software/gaussian/09/l508.exe)
 Direct SCF.
 Tight linear equation convergence will be used.
 RHF wavefunction.
 Quadratic Convergence SCF Method.
 Line search only if initial step raises energy.
 Integral symmetry usage will be decided dynamically.
 ReadGW:  IGet=1 IStart=         402 Next=         402 LGW=           0.
 Keep R1 ints in memory in canonical form, NReq=17056424.
 FoFCou: FMM=F IPFlag=           0 FMFlag=           0 FMFlg1=           0
         NFxFlg=           0 DoJE=F BraDBF=F KetDBF=F FulRan=T
         wScrn=  0.000000 ICntrl=     600 IOpCl=  0 I1Cent=           0 NGrid=           0
         NMat0=    1 NMatS0=   5671 NMatT0=    0 NMatD0=    1 NMtDS0=    0 NMtDT0=    0
 Symmetry not used in FoFCou.
 Iteration   1 EE= -342.796850854930                                    Grad=1.019D-01 Max rot=    0.5007 deg.
 Gradient too large for Newton-Raphson -- use scaled steepest descent instead.
 Alpha Gap=     1.897 HL deriv= 3.51D-04
     ILin= 1 X=0.000D+00 Y=-3.427968508549D+02 DE= 0.00D+00 F= -8.53D-03
     ILin= 2 X=3.000D-01 Y=-3.427991084126D+02 DE=-2.26D-03 F= -6.52D-03
     ILin= 3 X=6.000D-01 Y=-3.428007614633D+02 DE=-3.91D-03 F= -4.50D-03
     ILin= 4 X=1.200D+00 Y=-3.428022546965D+02 DE=-5.40D-03 F= -4.75D-04
     Reject lnstep minimum 1.504D+00 FVal=-3.428024366756D+02 Lims=  6.00D-01  1.20D+00
     ILin= 5 X=2.400D+00 Y=-3.427979956350D+02 DE=-1.14D-03 F=  7.57D-03
     An  expanding polynomial of degree  5 produced  1.2708
     Minimum is close to point  4 DX=  7.08D-02 DF= -1.68D-05 DXR=  5.57D-02 DFR=  3.11D-03 which will be used.
 Iteration   2 EE= -342.802254696521     Delta-E=       -0.005403841591 Grad=4.727D-02 Max rot=    0.2156 deg.
 Gradient too large for Newton-Raphson -- use scaled steepest descent instead.
 Alpha Gap=     1.899 HL deriv= 8.82D-04
     ILin= 1 X=0.000D+00 Y=-3.428022546965D+02 DE= 0.00D+00 F= -1.80D-03
     ILin= 2 X=6.000D-01 Y=-3.428030140716D+02 DE=-7.59D-04 F= -7.31D-04
     ILin= 3 X=1.200D+00 Y=-3.428031322072D+02 DE=-8.78D-04 F=  3.38D-04
     Accept linear search using points  2 and  3.
     An  expanding polynomial of degree  3 produced  0.9466
 Iteration   3 EE= -342.803160546694     Delta-E=       -0.000905850173 Grad=2.736D-02 Max rot=    0.1403 deg.
 Gradient too large for Newton-Raphson -- use scaled steepest descent instead.
 Alpha Gap=     1.898 HL deriv= 4.10D-05
     ILin= 1 X=0.000D+00 Y=-3.428031605467D+02 DE= 0.00D+00 F= -6.47D-04
     ILin= 2 X=1.100D+00 Y=-3.428034810573D+02 DE=-3.21D-04 F=  6.41D-05
     Accept linear search using points  1 and  2.
     An  expanding polynomial of degree  2 produced  1.0197
     Minimum is close to point  2 DX= -8.03D-02 DF= -2.33D-06 DXR=  7.87D-02 DFR=  7.26D-03 which will be used.
 Iteration   4 EE= -342.803481057255     Delta-E=       -0.000320510561 Grad=2.405D-02 Max rot=    0.1414 deg.
 Gradient too large for Newton-Raphson -- use scaled steepest descent instead.
 Alpha Gap=     1.898 HL deriv= 6.04D-04
     ILin= 1 X=0.000D+00 Y=-3.428034810573D+02 DE= 0.00D+00 F= -4.73D-04
     ILin= 2 X=1.000D+00 Y=-3.428036207934D+02 DE=-1.40D-04 F=  1.94D-04
     Accept linear search using points  1 and  2.
     An  expanding polynomial of degree  2 produced  0.7096
 Iteration   5 EE= -342.803648910029     Delta-E=       -0.000167852774 Grad=1.295D-02 Max rot=    0.0570 deg.
 Gradient too large for Newton-Raphson -- use scaled steepest descent instead.
 Alpha Gap=     1.898 HL deriv= 1.15D-04
     ILin= 1 X=0.000D+00 Y=-3.428036489100D+02 DE= 0.00D+00 F= -1.48D-04
     ILin= 2 X=9.000D-01 Y=-3.428037295285D+02 DE=-8.06D-05 F= -3.16D-05
     Reject lnstep minimum 1.637D+00 FVal=-3.428037396477D+02 Lims=  0.00D+00  9.00D-01
     ILin= 3 X=1.700D+00 Y=-3.428037135314D+02 DE=-6.46D-05 F=  7.16D-05
     An  expanding polynomial of degree  3 produced  1.1449
 Iteration   6 EE= -342.803733393257     Delta-E=       -0.000084483229 Grad=1.271D-02 Max rot=    0.0885 deg.
 Gradient too large for Newton-Raphson -- use scaled steepest descent instead.
 Alpha Gap=     1.898 HL deriv= 3.42D-04
     ILin= 1 X=0.000D+00 Y=-3.428037333933D+02 DE= 0.00D+00 F= -1.36D-04
     ILin= 2 X=9.000D-01 Y=-3.428037768461D+02 DE=-4.35D-05 F=  3.99D-05
     Accept linear search using points  1 and  2.
     An  expanding polynomial of degree  2 produced  0.6686
 Iteration   7 EE= -342.803780824990     Delta-E=       -0.000047431733 Grad=7.202D-03 Max rot=    0.0348 deg.
 QCNR:  CnvC1=6.36D-09 CnvC2=6.36D-08
 LinEq1:  Iter=  0 NonCon=     1 RMS=1.14D-04 Max=1.37D-03 NDo=     1
 AX will form     1 AO Fock derivatives at one time.
 LinEq1:  Iter=  1 NonCon=     1 RMS=1.48D-05 Max=1.68D-04 NDo=     1
 LinEq1:  Iter=  2 NonCon=     1 RMS=5.70D-06 Max=4.88D-05 NDo=     1
 LinEq1:  Iter=  3 NonCon=     1 RMS=1.47D-06 Max=1.28D-05 NDo=     1
 LinEq1:  Iter=  4 NonCon=     1 RMS=5.43D-07 Max=4.47D-06 NDo=     1
 LinEq1:  Iter=  5 NonCon=     1 RMS=1.20D-07 Max=8.63D-07 NDo=     1
 LinEq1:  Iter=  6 NonCon=     1 RMS=2.70D-08 Max=2.63D-07 NDo=     1
 LinEq1:  Iter=  7 NonCon=     1 RMS=7.36D-09 Max=5.97D-08 NDo=     1
 LinEq1:  Iter=  8 NonCon=     0 RMS=2.30D-09 Max=1.88D-08 NDo=     1
 Linear equations converged to 6.364D-09 6.364D-08 after     8 iterations.
 Angle between quadratic step and gradient=  31.79 degrees.
     ILin= 1 X=0.000D+00 Y=-3.428037808250D+02 DE= 0.00D+00 F= -1.46D-04
     ILin= 2 X=1.000D+00 Y=-3.428038540482D+02 DE=-7.32D-05 F= -5.93D-08
     Reject lnstep minimum 1.000D+00 FVal=-3.428038540482D+02 Lims=  0.00D+00  1.00D+00
     ILin= 3 X=2.000D+00 Y=-3.428037809832D+02 DE=-1.58D-07 F=  1.46D-04
     An  expanding polynomial of degree  3 produced  1.0005
     Minimum is close to point  2 DX=  5.41D-04 DF= -2.15D-11 DXR=  5.41D-04 DFR=  2.93D-07 which will be used.
 Iteration   8 EE= -342.803854048190     Delta-E=       -0.000073223199 Grad=2.070D-05 Max rot=    0.0001 deg.
 QCNR:  CnvC1=2.07D-10 CnvC2=2.07D-09
 LinEq1:  Iter=  0 NonCon=     1 RMS=2.21D-07 Max=1.54D-06 NDo=     1
 LinEq1:  Iter=  1 NonCon=     1 RMS=6.73D-08 Max=5.59D-07 NDo=     1
 LinEq1:  Iter=  2 NonCon=     1 RMS=1.78D-08 Max=1.45D-07 NDo=     1
 LinEq1:  Iter=  3 NonCon=     1 RMS=4.78D-09 Max=4.00D-08 NDo=     1
 LinEq1:  Iter=  4 NonCon=     1 RMS=1.12D-09 Max=9.36D-09 NDo=     1
 LinEq1:  Iter=  5 NonCon=     1 RMS=2.78D-10 Max=2.25D-09 NDo=     1
 LinEq1:  Iter=  6 NonCon=     0 RMS=8.15D-11 Max=6.28D-10 NDo=     1
 Linear equations converged to 2.070D-10 2.070D-09 after     6 iterations.
 Angle between quadratic step and gradient=  35.49 degrees.
     ILin= 1 X=0.000D+00 Y=-3.428038540482D+02 DE= 0.00D+00 F= -4.00D-10
     ILin= 2 X=1.000D+00 Y=-3.428038540484D+02 DE=-2.01D-10
 Iteration   9 EE= -342.803854048391     Delta-E=       -0.000000000201 Grad=1.069D-08 Max rot=    0.0000 deg.
 Rotation gradient small -- convergence achieved.
 SCF Done:  E(RHF) =  -342.803854048     a.u. after    9 cycles
            Convg  =    0.1069D-07                    33 Fock formations.
              S**2 =  0.0000                  -V/T =  2.0016
 Leave Link  508 at Wed Sep 20 14:33:48 2023, MaxMem=    33554432 cpu:         1.7
 (Enter /mnt/storage/apps/eb/software/gaussian/09/l701.exe)
 Compute integral first derivatives.
 ... and contract with generalized density number  0.
 Leave Link  701 at Wed Sep 20 14:33:48 2023, MaxMem=    33554432 cpu:         0.1
 (Enter /mnt/storage/apps/eb/software/gaussian/09/l702.exe)
 L702 exits ... SP integral derivatives will be done elsewhere.
 Leave Link  702 at Wed Sep 20 14:33:48 2023, MaxMem=    33554432 cpu:         0.0
 (Enter /mnt/storage/apps/eb/software/gaussian/09/l703.exe)
 Compute integral first derivatives, UseDBF=F ICtDFT=           0.
 Integral derivatives from FoFJK, PRISM(SPDF).
 Calling FoFJK, ICntrl=      2127 FMM=F ISym2X=0 I1Cent= 0 IOpClX= 0 NMat=1 NMatS=1 NMatT=0.
 FoFJK:  IHMeth= 1 ICntrl=    2127 DoSepK=F KAlg= 0 I1Cent=   0 FoldK=F
 IRaf=         0 NMat=   1 IRICut=       1 DoRegI=T DoRafI=F ISym2E= 0.
 FoFCou: FMM=F IPFlag=           0 FMFlag=      100000 FMFlg1=         800
         NFxFlg=           0 DoJE=F BraDBF=F KetDBF=F FulRan=T
         wScrn=  0.000000 ICntrl=    2127 IOpCl=  0 I1Cent=           0 NGrid=           0
         NMat0=    1 NMatS0=      1 NMatT0=    0 NMatD0=    1 NMtDS0=    0 NMtDT0=    0
 Symmetry not used in FoFCou.
 Leave Link  703 at Wed Sep 20 14:33:49 2023, MaxMem=    33554432 cpu:         1.5
 (Enter /mnt/storage/apps/eb/software/gaussian/09/l716.exe)
 Dipole        = 5.27054849D-01 2.71197326D-01 1.44019456D+00
 ***** Axes restored to original set *****
 -------------------------------------------------------------------
 Center     Atomic                   Forces (Hartrees/Bohr)
 Number     Number              X              Y              Z
 -------------------------------------------------------------------
      1        8          -0.003847991    0.001266695    0.001128721
      2        6          -0.001651897   -0.000935517   -0.003170810
      3        6           0.003210115   -0.015475522    0.000065138
      4        8          -0.005618093    0.008044061   -0.001112166
      5        6           0.002945473   -0.001176393   -0.002771927
      6        8          -0.000160534   -0.000723619    0.002086344
      7        1           0.000785976    0.000785931   -0.001571811
      8        1           0.000849295    0.000002670    0.001619980
      9        1          -0.001592025    0.000523052    0.002708276
     10        1           0.000994991    0.001609673   -0.001163228
     11        1           0.002111522    0.001278907    0.002319180
     12        1           0.001699793    0.000940621    0.001025498
     13        1          -0.000614993    0.001499223    0.001222685
     14        1           0.000888369    0.002360217   -0.002385880
 -------------------------------------------------------------------
 Cartesian Forces:  Max     0.015475522 RMS     0.003294646
 Leave Link  716 at Wed Sep 20 14:33:49 2023, MaxMem=    33554432 cpu:         0.0
 (Enter /mnt/storage/apps/eb/software/gaussian/09/l103.exe)

 GradGradGradGradGradGradGradGradGradGradGradGradGradGradGradGradGradGrad
 Berny optimization.
 Using GEDIIS/GDIIS optimizer.
 FormGI is forming the generalized inverse of G from B-inverse, IUseBI=4.
 Internal  Forces:  Max     0.009838660 RMS     0.002120644
 Search for a local minimum.
 Step number   2 out of a maximum of  100
 All quantities printed in internal units (Hartrees-Bohrs-Radians)
 RMS Force = .21206D-02 SwitMx=.10000D-02 MixMth= 1
 Mixed Optimization -- RFO/linear search
 Update second derivatives using D2CorX and points    1    2
 DE= -1.52D-02 DEPred=-1.64D-02 R= 9.26D-01
 TightC=F SS=  1.41D+00  RLast= 3.65D-01 DXNew= 5.0454D-01 1.0963D+00
 Trust test= 9.26D-01 RLast= 3.65D-01 DXMaxT set to 5.05D-01
 ITU=  1  0
 Use linear search instead of GDIIS.
     Eigenvalues ---    0.00474   0.00563   0.01748   0.01770   0.02066
     Eigenvalues ---    0.04186   0.04914   0.04990   0.05397   0.06025
     Eigenvalues ---    0.06274   0.07666   0.11325   0.11821   0.13807
     Eigenvalues ---    0.14036   0.15992   0.16000   0.16339   0.17310
     Eigenvalues ---    0.20562   0.21795   0.22524   0.29908   0.30568
     Eigenvalues ---    0.31162   0.31777   0.32628   0.33363   0.34329
     Eigenvalues ---    0.45831   0.46743   0.46867   0.49084   0.50890
     Eigenvalues ---    0.53466
 RFO step:  Lambda=-2.72933008D-03 EMin= 4.74347587D-03
 Quartic linear search produced a step of  0.02686.
 Iteration  1 RMS(Cart)=  0.06778381 RMS(Int)=  0.00334150
 Iteration  2 RMS(Cart)=  0.00345198 RMS(Int)=  0.00010577
 Iteration  3 RMS(Cart)=  0.00000714 RMS(Int)=  0.00010566
 Iteration  4 RMS(Cart)=  0.00000000 RMS(Int)=  0.00010566
 ITry= 1 IFail=0 DXMaxC= 2.72D-01 DCOld= 1.00D+10 DXMaxT= 5.05D-01 DXLimC= 3.00D+00 Rises=F
 Variable       Old X    -DE/DX   Delta X   Delta X   Delta X     New X
                                 (Linear)    (Quad)   (Total)
    R1        2.65821  -0.00282   0.00057  -0.00562  -0.00506   2.65316
    R2        1.78792  -0.00061  -0.00289  -0.00411  -0.00701   1.78091
    R3        2.89537  -0.00498   0.00051  -0.01626  -0.01575   2.87961
    R4        2.05489   0.00149  -0.00107   0.00363   0.00256   2.05745
    R5        2.05726  -0.00238  -0.00180  -0.00940  -0.01120   2.04605
    R6        2.63335   0.00984   0.00115   0.02082   0.02196   2.65532
    R7        2.89315  -0.00515   0.00080  -0.01619  -0.01539   2.87776
    R8        2.04464   0.00052  -0.00145   0.00028  -0.00118   2.04346
    R9        1.78803   0.00182  -0.00167   0.00195   0.00029   1.78831
   R10        2.64758  -0.00045   0.00040  -0.00060  -0.00021   2.64737
   R11        2.04045  -0.00053  -0.00220  -0.00376  -0.00596   2.03449
   R12        2.06028   0.00154  -0.00025   0.00434   0.00408   2.06437
   R13        1.78550   0.00076  -0.00215  -0.00055  -0.00270   1.78280
    A1        1.92423  -0.00079   0.00200  -0.00336  -0.00136   1.92287
    A2        1.92295  -0.00384  -0.00028  -0.01763  -0.01790   1.90505
    A3        1.94257   0.00034  -0.00070  -0.00182  -0.00247   1.94010
    A4        1.92649   0.00200   0.00146   0.01276   0.01420   1.94069
    A5        1.89383   0.00237  -0.00022   0.01383   0.01360   1.90743
    A6        1.89054   0.00028   0.00135   0.00048   0.00184   1.89238
    A7        1.88612  -0.00108  -0.00153  -0.00730  -0.00884   1.87729
    A8        1.89833   0.00130  -0.00046  -0.00437  -0.00515   1.89318
    A9        1.97327  -0.00131   0.00171  -0.00984  -0.00838   1.96489
   A10        1.90297  -0.00021  -0.00085   0.00565   0.00475   1.90772
   A11        1.97357  -0.00161  -0.00025  -0.01887  -0.01925   1.95432
   A12        1.85497  -0.00016  -0.00072   0.00288   0.00231   1.85728
   A13        1.85554   0.00209   0.00046   0.02692   0.02746   1.88301
   A14        1.92598  -0.00002  -0.00249  -0.00209  -0.00457   1.92140
   A15        1.96081  -0.00377   0.00118  -0.01772  -0.01678   1.94402
   A16        1.90014   0.00111   0.00138   0.01244   0.01389   1.91403
   A17        1.93012  -0.00044  -0.00134  -0.01400  -0.01556   1.91456
   A18        1.85210   0.00221   0.00029   0.02256   0.02283   1.87493
   A19        1.94315   0.00128  -0.00104  -0.00434  -0.00580   1.93735
   A20        1.87329  -0.00011  -0.00030   0.00420   0.00399   1.87729
   A21        1.92812  -0.00008  -0.00126  -0.00150  -0.00275   1.92536
    D1       -2.71139  -0.00148   0.00030  -0.05152  -0.05128  -2.76268
    D2       -0.60973  -0.00084  -0.00065  -0.04710  -0.04770  -0.65743
    D3        1.48460  -0.00065  -0.00204  -0.04899  -0.05101   1.43359
    D4       -3.14000  -0.00071   0.00005   0.03139   0.03140  -3.10860
    D5        0.93565   0.00136  -0.00051   0.06683   0.06628   1.00192
    D6       -1.12423  -0.00031  -0.00159   0.03549   0.03390  -1.09033
    D7        1.01243  -0.00025   0.00125   0.03576   0.03703   1.04946
    D8       -1.19510   0.00181   0.00069   0.07121   0.07190  -1.12320
    D9        3.02820   0.00015  -0.00039   0.03987   0.03953   3.06773
   D10       -1.03112  -0.00041   0.00243   0.03665   0.03909  -0.99204
   D11        3.04453   0.00166   0.00187   0.07210   0.07396   3.11848
   D12        0.98465  -0.00001   0.00080   0.04076   0.04158   1.02623
   D13       -1.45401   0.00234  -0.00043   0.08103   0.08054  -1.37347
   D14        0.75335   0.00044   0.00128   0.05078   0.05210   0.80545
   D15        2.78259   0.00201   0.00125   0.07508   0.07636   2.85894
   D16       -3.10885  -0.00053  -0.00054   0.04644   0.04604  -3.06281
   D17       -1.06264   0.00066   0.00122   0.07166   0.07297  -0.98968
   D18        0.99144   0.00094   0.00096   0.07612   0.07699   1.06842
   D19        1.00742   0.00007  -0.00107   0.07541   0.07432   1.08174
   D20        3.05362   0.00125   0.00069   0.10064   0.10125  -3.12831
   D21       -1.17548   0.00154   0.00043   0.10509   0.10527  -1.07021
   D22       -1.02148  -0.00017  -0.00036   0.06536   0.06517  -0.95632
   D23        1.02472   0.00102   0.00141   0.09059   0.09210   1.11681
   D24        3.07880   0.00130   0.00114   0.09504   0.09612  -3.10827
   D25       -1.43367   0.00292   0.00231   0.11120   0.11345  -1.32022
   D26        2.77490   0.00228  -0.00009   0.09175   0.09170   2.86660
   D27        0.74207   0.00046   0.00065   0.07591   0.07661   0.81867
         Item               Value     Threshold  Converged?
 Maximum Force            0.009839     0.000015     NO 
 RMS     Force            0.002121     0.000010     NO 
 Maximum Displacement     0.272176     0.000060     NO 
 RMS     Displacement     0.068093     0.000040     NO 
 Predicted change in Energy=-1.580430D-03
 Lowest energy point so far.  Saving SCF results.
 GradGradGradGradGradGradGradGradGradGradGradGradGradGradGradGradGradGrad

 Leave Link  103 at Wed Sep 20 14:33:49 2023, MaxMem=    33554432 cpu:         0.0
 (Enter /mnt/storage/apps/eb/software/gaussian/09/l202.exe)
                          Input orientation:                          
 ---------------------------------------------------------------------
 Center     Atomic      Atomic             Coordinates (Angstroms)
 Number     Number       Type             X           Y           Z
 ---------------------------------------------------------------------
      1          8           0        1.758575   -1.207257    0.129565
      2          6           0        1.375503    0.143424    0.119449
      3          6           0       -0.049125    0.255060   -0.409713
      4          8           0       -0.402062    1.614400   -0.454755
      5          6           0       -1.041232   -0.564584    0.404511
      6          8           0       -2.321991   -0.526003   -0.161854
      7          1           0        2.467207   -1.339550    0.736601
      8          1           0        1.422598    0.572784    1.118862
      9          1           0        2.024563    0.729600   -0.518841
     10          1           0       -0.080694   -0.102800   -1.429648
     11          1           0       -0.633103    1.919082    0.410887
     12          1           0       -0.728962   -1.594692    0.425678
     13          1           0       -1.058059   -0.204022    1.435570
     14          1           0       -2.733218    0.304559    0.014476
 ---------------------------------------------------------------------
                    Distance matrix (angstroms):
                    1          2          3          4          5
     1  O    0.000000
     2  C    1.403989   0.000000
     3  C    2.386833   1.523825   0.000000
     4  O    3.601601   2.377649   1.405133   0.000000
     5  C    2.885748   2.534393   1.522844   2.427931   0.000000
     6  O    4.147293   3.768120   2.416073   2.890198   1.400928
     7  H    0.942419   1.942139   3.191981   4.286939   3.608324
     8  H    2.064010   1.088758   2.145567   2.624998   2.806130
     9  H    2.059756   1.082725   2.130089   2.583695   3.453489
    10  H    2.652146   2.140290   1.081355   2.000617   2.121324
    11  H    3.946297   2.696738   1.945092   0.946333   2.516984
    12  H    2.534882   2.746561   2.140476   3.343695   1.076607
    13  H    3.262752   2.788390   2.152619   2.703760   1.092415
    14  H    4.740784   4.113219   2.717855   2.714802   1.941739
                    6          7          8          9         10
     6  O    0.000000
     7  H    4.940192   0.000000
     8  H    4.107251   2.212318   0.000000
     9  H    4.538337   2.460376   1.751863   0.000000
    10  H    2.609562   3.565667   3.034997   2.440198   0.000000
    11  H    3.026353   4.509622   2.557275   3.056542   2.789396
    12  H    2.006247   3.221377   3.131720   3.725097   2.467434
    13  H    2.062270   3.769016   2.618662   3.767483   3.029020
    14  H    0.943416   5.501725   4.308413   4.806408   3.047510
                   11         12         13         14
    11  H    0.000000
    12  H    3.515112   0.000000
    13  H    2.395440   1.749899   0.000000
    14  H    2.678490   2.791645   2.254844   0.000000
 Stoichiometry    C3H8O3
 Framework group  C1[X(C3H8O3)]
 Deg. of freedom    36
 Full point group                 C1      NOp   1
 RotChk:  IX=0 Diff= 3.01D-02
 Largest Abelian subgroup         C1      NOp   1
 Largest concise Abelian subgroup C1      NOp   1
                         Standard orientation:                         
 ---------------------------------------------------------------------
 Center     Atomic      Atomic             Coordinates (Angstroms)
 Number     Number       Type             X           Y           Z
 ---------------------------------------------------------------------
      1          8           0        2.032606   -0.847517   -0.173391
      2          6           0        1.441743    0.388171    0.135063
      3          6           0       -0.014044    0.372388   -0.314911
      4          8           0       -0.578847    1.629147   -0.039318
      5          6           0       -0.809598   -0.761160    0.318506
      6          8           0       -2.114531   -0.814767   -0.188322
      7          1           0        2.791186   -0.989086    0.367598
      8          1           0        1.485513    0.588733    1.204294
      9          1           0        1.947479    1.200995   -0.370745
     10          1           0       -0.055111    0.247656   -1.388263
     11          1           0       -0.798208    1.692586    0.879052
     12          1           0       -0.338274   -1.703144    0.095795
     13          1           0       -0.815920   -0.644414    1.404646
     14          1           0       -2.639094   -0.124620    0.183920
 ---------------------------------------------------------------------
 Rotational constants (GHZ):      5.3646965      2.4271014      1.7910331
 Leave Link  202 at Wed Sep 20 14:33:49 2023, MaxMem=    33554432 cpu:         0.0
 (Enter /mnt/storage/apps/eb/software/gaussian/09/l301.exe)
 Standard basis: 6-31G(d) (6D, 7F)
 Ernie: Thresh=  0.10000D-02 Tol=  0.10000D-05 Strict=F.
 There are   106 symmetry adapted cartesian basis functions of A   symmetry.
 There are   106 symmetry adapted basis functions of A   symmetry.
   106 basis functions,   200 primitive gaussians,   106 cartesian basis functions
    25 alpha electrons       25 beta electrons
       nuclear repulsion energy       262.9774956966 Hartrees.
 IExCor=    0 DFT=F Ex=HF Corr=None ExCW=0 ScaHFX=  1.000000
 ScaDFX=  1.000000  1.000000  1.000000  1.000000 ScalE2=  1.000000  1.000000
 IRadAn=      0 IRanWt=     -1 IRanGd=            0 ICorTp=0 IEmpDi=  4
 NAtoms=   14 NActive=   14 NUniq=   14 SFac= 1.00D+00 NAtFMM=   60 NAOKFM=F Big=F
 Integral buffers will be    131072 words long.
 Raffenetti 1 integral format.
 Two-electron integral symmetry is turned on.
 Leave Link  301 at Wed Sep 20 14:33:49 2023, MaxMem=    33554432 cpu:         0.0
 (Enter /mnt/storage/apps/eb/software/gaussian/09/l302.exe)
 NPDir=0 NMtPBC=     1 NCelOv=     1 NCel=       1 NClECP=     1 NCelD=      1
         NCelK=      1 NCelE2=     1 NClLst=     1 CellRange=     0.0.
 One-electron integrals computed using PRISM.
 NBasis=   106 RedAO= T EigKep=  3.22D-03  NBF=   106
 NBsUse=   106 1.00D-06 EigRej= -1.00D+00 NBFU=   106
 Leave Link  302 at Wed Sep 20 14:33:49 2023, MaxMem=    33554432 cpu:         0.1
 (Enter /mnt/storage/apps/eb/software/gaussian/09/l303.exe)
 DipDrv:  MaxL=1.
 Leave Link  303 at Wed Sep 20 14:33:49 2023, MaxMem=    33554432 cpu:         0.0
 (Enter /mnt/storage/apps/eb/software/gaussian/09/l401.exe)
 Initial guess from the checkpoint file:  "/scratch/nca121/18446470/Gau-6935.chk"
 B after Tr=     0.000000    0.000000    0.000000
         Rot=    0.999983    0.005587    0.000363   -0.001655 Ang=   0.67 deg.
 Guess basis will be translated and rotated to current coordinates.
 JPrj=2 DoOrth=T DoCkMO=T.
 Generating alternative initial guess.
 ExpMin= 1.61D-01 ExpMax= 5.48D+03 ExpMxC= 8.25D+02 IAcc=1 IRadAn=         1 AccDes= 0.00D+00
 Harris functional with IExCor=  205 and IRadAn=       1 diagonalized for initial guess.
 HarFok:  IExCor=  205 AccDes= 0.00D+00 IRadAn=         1 IDoV= 1 UseB2=F ITyADJ=14
 ICtDFT=  3500011 ScaDFX=  1.000000  1.000000  1.000000  1.000000
 FoFCou: FMM=F IPFlag=           0 FMFlag=      100000 FMFlg1=           0
         NFxFlg=           0 DoJE=T BraDBF=F KetDBF=T FulRan=T
         wScrn=  0.000000 ICntrl=     500 IOpCl=  0 I1Cent=   200000004 NGrid=           0
         NMat0=    1 NMatS0=      1 NMatT0=    0 NMatD0=    1 NMtDS0=    0 NMtDT0=    0
 Petite list used in FoFCou.
 Harris En= -343.197719022607    
 Leave Link  401 at Wed Sep 20 14:33:50 2023, MaxMem=    33554432 cpu:         0.3
 (Enter /mnt/storage/apps/eb/software/gaussian/09/l508.exe)
 Direct SCF.
 Tight linear equation convergence will be used.
 RHF wavefunction.
 Quadratic Convergence SCF Method.
 Line search only if initial step raises energy.
 Integral symmetry usage will be decided dynamically.
 ReadGW:  IGet=1 IStart=         402 Next=         402 LGW=           0.
 Keep R1 ints in memory in canonical form, NReq=17056495.
 FoFCou: FMM=F IPFlag=           0 FMFlag=           0 FMFlg1=           0
         NFxFlg=           0 DoJE=F BraDBF=F KetDBF=F FulRan=T
         wScrn=  0.000000 ICntrl=     600 IOpCl=  0 I1Cent=           0 NGrid=           0
         NMat0=    1 NMatS0=   5671 NMatT0=    0 NMatD0=    1 NMtDS0=    0 NMtDT0=    0
 Symmetry not used in FoFCou.
 Iteration   1 EE= -342.797711772791                                    Grad=1.014D-01 Max rot=    0.5718 deg.
 Gradient too large for Newton-Raphson -- use scaled steepest descent instead.
 Alpha Gap=     1.887 HL deriv= 7.66D-05
     ILin= 1 X=0.000D+00 Y=-3.427977117728D+02 DE= 0.00D+00 F= -8.61D-03
     ILin= 2 X=3.000D-01 Y=-3.428000295258D+02 DE=-2.32D-03 F= -6.84D-03
     ILin= 3 X=6.000D-01 Y=-3.428018179718D+02 DE=-4.11D-03 F= -5.08D-03
     ILin= 4 X=1.200D+00 Y=-3.428038058223D+02 DE=-6.09D-03 F= -1.55D-03
     ILin= 5 X=2.400D+00 Y=-3.428014190203D+02 DE=-3.71D-03 F=  5.53D-03
     An  expanding polynomial of degree  5 produced  1.4625
 Iteration   2 EE= -342.804008866156     Delta-E=       -0.006297093365 Grad=5.266D-02 Max rot=    0.2732 deg.
 Gradient too large for Newton-Raphson -- use scaled steepest descent instead.
 Alpha Gap=     1.888 HL deriv= 1.25D-05
     ILin= 1 X=0.000D+00 Y=-3.428040088662D+02 DE= 0.00D+00 F= -2.32D-03
     ILin= 2 X=7.000D-01 Y=-3.428050394611D+02 DE=-1.03D-03 F= -6.21D-04
     Reject lnstep minimum 1.155D+00 FVal=-3.428053362731D+02 Lims=  0.00D+00  7.00D-01
     ILin= 3 X=1.300D+00 Y=-3.428049740381D+02 DE=-9.65D-04 F=  8.39D-04
     An  expanding polynomial of degree  3 produced  0.9552
 Iteration   3 EE= -342.805118668339     Delta-E=       -0.001109802183 Grad=2.854D-02 Max rot=    0.1593 deg.
 Gradient too large for Newton-Raphson -- use scaled steepest descent instead.
 Alpha Gap=     1.887 HL deriv= 2.59D-04
     ILin= 1 X=0.000D+00 Y=-3.428051186683D+02 DE= 0.00D+00 F= -7.30D-04
     ILin= 2 X=1.200D+00 Y=-3.428054445411D+02 DE=-3.26D-04 F=  1.87D-04
     Accept linear search using points  1 and  2.
     An  expanding polynomial of degree  2 produced  1.0136
 Iteration   4 EE= -342.805466128372     Delta-E=       -0.000347460033 Grad=2.388D-02 Max rot=    0.1617 deg.
 Gradient too large for Newton-Raphson -- use scaled steepest descent instead.
 Alpha Gap=     1.888 HL deriv= 1.63D-04
     ILin= 1 X=0.000D+00 Y=-3.428054661284D+02 DE= 0.00D+00 F= -4.88D-04
     ILin= 2 X=1.000D+00 Y=-3.428056346533D+02 DE=-1.69D-04 F=  1.50D-04
     Accept linear search using points  1 and  2.
     An  expanding polynomial of degree  2 produced  0.7642
 Iteration   5 EE= -342.805652395223     Delta-E=       -0.000186266851 Grad=1.479D-02 Max rot=    0.0948 deg.
 Gradient too large for Newton-Raphson -- use scaled steepest descent instead.
 Alpha Gap=     1.888 HL deriv= 2.11D-04
     ILin= 1 X=0.000D+00 Y=-3.428056523952D+02 DE= 0.00D+00 F= -2.01D-04
     ILin= 2 X=9.000D-01 Y=-3.428057549465D+02 DE=-1.03D-04 F= -2.64D-05
     Reject lnstep minimum 1.145D+00 FVal=-3.428057583778D+02 Lims=  0.00D+00  9.00D-01
     ILin= 3 X=1.800D+00 Y=-3.428056999649D+02 DE=-4.76D-05 F=  1.49D-04
     An  expanding polynomial of degree  3 produced  1.0359
 Iteration   6 EE= -342.805756742148     Delta-E=       -0.000104346925 Grad=1.390D-02 Max rot=    0.1059 deg.
 Gradient too large for Newton-Raphson -- use scaled steepest descent instead.
 Alpha Gap=     1.888 HL deriv= 7.98D-05
     ILin= 1 X=0.000D+00 Y=-3.428057567421D+02 DE= 0.00D+00 F= -1.66D-04
[...]
 Optimization completed.
    -- Stationary point found.
                           ----------------------------
                           !   Optimized Parameters   !
                           ! (Angstroms and Degrees)  !
 --------------------------                            --------------------------
 ! Name  Definition              Value          Derivative Info.                !
 --------------------------------------------------------------------------------
 ! R1    R(1,2)                  1.4002         -DE/DX =    0.0                 !
 ! R2    R(1,7)                  0.9465         -DE/DX =    0.0                 !
 ! R3    R(2,3)                  1.5204         -DE/DX =    0.0                 !
 ! R4    R(2,8)                  1.0914         -DE/DX =    0.0                 !
 ! R5    R(2,9)                  1.0862         -DE/DX =    0.0                 !
 ! R6    R(3,4)                  1.4126         -DE/DX =    0.0                 !
 ! R7    R(3,5)                  1.5212         -DE/DX =    0.0                 !
 ! R8    R(3,10)                 1.0815         -DE/DX =    0.0                 !
 ! R9    R(4,11)                 0.9491         -DE/DX =    0.0                 !
 ! R10   R(5,6)                  1.3973         -DE/DX =    0.0                 !
 ! R11   R(5,12)                 1.0796         -DE/DX =    0.0                 !
 ! R12   R(5,13)                 1.093          -DE/DX =    0.0                 !
 ! R13   R(6,14)                 0.9487         -DE/DX =    0.0                 !
 ! A1    A(2,1,7)              110.0315         -DE/DX =    0.0                 !
 ! A2    A(1,2,3)              108.2596         -DE/DX =    0.0                 !
 ! A3    A(1,2,8)              110.8909         -DE/DX =    0.0                 !
 ! A4    A(1,2,9)              111.6362         -DE/DX =    0.0                 !
 ! A5    A(3,2,8)              109.654          -DE/DX =    0.0                 !
 ! A6    A(3,2,9)              108.6224         -DE/DX =    0.0                 !
 ! A7    A(8,2,9)              107.7437         -DE/DX =    0.0                 !
 ! A8    A(2,3,4)              110.0124         -DE/DX =    0.0                 !
 ! A9    A(2,3,5)              113.581          -DE/DX =    0.0                 !
 ! A10   A(2,3,10)             109.0016         -DE/DX =    0.0                 !
 ! A11   A(4,3,5)              109.8319         -DE/DX =    0.0                 !
 ! A12   A(4,3,10)             105.4416         -DE/DX =    0.0                 !
 ! A13   A(5,3,10)             108.6381         -DE/DX =    0.0                 !
 ! A14   A(3,4,11)             109.6542         -DE/DX =    0.0                 !
 ! A15   A(3,5,6)              110.9149         -DE/DX =    0.0                 !
 ! A16   A(3,5,12)             110.5149         -DE/DX =    0.0                 !
 ! A17   A(3,5,13)             109.2232         -DE/DX =    0.0                 !
 ! A18   A(6,5,12)             107.5938         -DE/DX =    0.0                 !
 ! A19   A(6,5,13)             110.7819         -DE/DX =    0.0                 !
 ! A20   A(12,5,13)            107.7551         -DE/DX =    0.0                 !
 ! A21   A(5,6,14)             108.2056         -DE/DX =    0.0                 !
 ! D1    D(7,1,2,3)            176.3236         -DE/DX =    0.0                 !
 ! D2    D(7,1,2,8)            -63.3434         -DE/DX =    0.0                 !
 ! D3    D(7,1,2,9)             56.8106         -DE/DX =    0.0                 !
 ! D4    D(1,2,3,4)           -177.0679         -DE/DX =    0.0                 !
 ! D5    D(1,2,3,5)             59.3631         -DE/DX =    0.0                 !
 ! D6    D(1,2,3,10)           -61.9098         -DE/DX =    0.0                 !
 ! D7    D(8,2,3,4)             61.8302         -DE/DX =    0.0                 !
 ! D8    D(8,2,3,5)            -61.7388         -DE/DX =    0.0                 !
 ! D9    D(8,2,3,10)           176.9883         -DE/DX =    0.0                 !
 ! D10   D(9,2,3,4)            -55.6757         -DE/DX =    0.0                 !
 ! D11   D(9,2,3,5)           -179.2447         -DE/DX =    0.0                 !
 ! D12   D(9,2,3,10)            59.4824         -DE/DX =    0.0                 !
 ! D13   D(2,3,4,11)           -59.4018         -DE/DX =    0.0                 !
 ! D14   D(5,3,4,11)            66.3272         -DE/DX =    0.0                 !
 ! D15   D(10,3,4,11)         -176.7954         -DE/DX =    0.0                 !
 ! D16   D(2,3,5,6)           -179.1882         -DE/DX =    0.0                 !
 ! D17   D(2,3,5,12)           -59.9465         -DE/DX =    0.0                 !
 ! D18   D(2,3,5,13)            58.4323         -DE/DX =    0.0                 !
 ! D19   D(4,3,5,6)             57.1444         -DE/DX =    0.0                 !
 ! D20   D(4,3,5,12)           176.3862         -DE/DX =    0.0                 !
 ! D21   D(4,3,5,13)           -65.235          -DE/DX =    0.0                 !
 ! D22   D(10,3,5,6)           -57.7121         -DE/DX =    0.0                 !
 ! D23   D(10,3,5,12)           61.5296         -DE/DX =    0.0                 !
 ! D24   D(10,3,5,13)          179.9084         -DE/DX =    0.0                 !
 ! D25   D(3,5,6,14)           -43.9143         -DE/DX =    0.0                 !
 ! D26   D(12,5,6,14)         -164.896          -DE/DX =    0.0                 !
 ! D27   D(13,5,6,14)           77.5544         -DE/DX =    0.0                 !
 --------------------------------------------------------------------------------
 Lowest energy point so far.  Saving SCF results.
 GradGradGradGradGradGradGradGradGradGradGradGradGradGradGradGradGradGrad

 Largest change from initial coordinates is atom   14       0.683 Angstoms.
 Leave Link  103 at Wed Sep 20 14:34:42 2023, MaxMem=    33554432 cpu:         0.0
 (Enter /mnt/storage/apps/eb/software/gaussian/09/l202.exe)
                          Input orientation:                          
 ---------------------------------------------------------------------
 Center     Atomic      Atomic             Coordinates (Angstroms)
 Number     Number       Type             X           Y           Z
 ---------------------------------------------------------------------
      1          8           0        1.737276   -1.196438    0.182172
      2          6           0        1.333010    0.144111    0.170845
      3          6           0       -0.090969    0.207801   -0.358186
      4          8           0       -0.513317    1.552687   -0.448747
      5          6           0       -1.084822   -0.590461    0.471909
      6          8           0       -2.368960   -0.508526   -0.072702
      7          1           0        2.641522   -1.260089    0.454463
      8          1           0        1.371056    0.570586    1.174787
      9          1           0        1.968444    0.748644   -0.469916
     10          1           0       -0.107038   -0.167986   -1.372225
     11          1           0       -0.473875    1.958098    0.408541
     12          1           0       -0.806417   -1.633226    0.495769
     13          1           0       -1.075149   -0.219288    1.499906
     14          1           0       -2.530761    0.394086   -0.315831
 ---------------------------------------------------------------------
                    Distance matrix (angstroms):
                    1          2          3          4          5
     1  O    0.000000
     2  C    1.400226   0.000000
     3  C    2.367774   1.520410   0.000000
     4  O    3.608451   2.403519   1.412551   0.000000
     5  C    2.900930   2.544827   1.521191   2.401522   0.000000
     6  O    4.171255   3.766940   2.404968   2.798825   1.397257
     7  H    0.946496   1.940212   3.206494   4.322096   3.786073
     8  H    2.059557   1.091433   2.149217   2.674181   2.805958
     9  H    2.064461   1.086191   2.132176   2.608845   3.464486
    10  H    2.622091   2.133590   1.081549   1.994640   2.129641
    11  H    3.858954   2.571357   1.948852   0.949134   2.621530
    12  H    2.599905   2.800295   2.151856   3.335874   1.079554
    13  H    3.255915   2.774471   2.145582   2.693102   1.092997
    14  H    4.581912   3.902316   2.447260   2.330258   1.918491
                    6          7          8          9         10
     6  O    0.000000
     7  H    5.093887   0.000000
     8  H    4.087595   2.341863   0.000000
     9  H    4.533357   2.311389   1.758870   0.000000
    10  H    2.630783   3.476214   3.036036   2.441720   0.000000
    11  H    3.147566   4.479345   2.432301   2.863456   2.797485
    12  H    2.007399   3.468317   3.171630   3.782288   2.474967
    13  H    2.056867   3.998733   2.591046   3.752405   3.031337
    14  H    0.948683   5.484721   4.180582   4.515783   2.703022
                   11         12         13         14
    11  H    0.000000
    12  H    3.607741   0.000000
    13  H    2.508708   1.754916   0.000000
    14  H    2.683585   2.782454   2.406644   0.000000
 Stoichiometry    C3H8O3
 Framework group  C1[X(C3H8O3)]
 Deg. of freedom    36
 Full point group                 C1      NOp   1
 RotChk:  IX=0 Diff= 7.66D-16
 Largest Abelian subgroup         C1      NOp   1
 Largest concise Abelian subgroup C1      NOp   1
                         Standard orientation:                         
 ---------------------------------------------------------------------
 Center     Atomic      Atomic             Coordinates (Angstroms)
 Number     Number       Type             X           Y           Z
 ---------------------------------------------------------------------
      1          8           0        2.048757   -0.817798   -0.166576
      2          6           0        1.434871    0.397244    0.161221
      3          6           0       -0.011825    0.340539   -0.302999
      4          8           0       -0.649294    1.575520   -0.050502
      5          6           0       -0.809554   -0.790549    0.328104
      6          8           0       -2.122435   -0.802165   -0.149949
      7          1           0        2.967072   -0.788802    0.060826
      8          1           0        1.468282    0.572129    1.238034
      9          1           0        1.922762    1.236657   -0.325767
     10          1           0       -0.032365    0.220278   -1.377645
     11          1           0       -0.620526    1.765467    0.878986
     12          1           0       -0.366589   -1.745444    0.088537
     13          1           0       -0.793681   -0.679121    1.415290
     14          1           0       -2.442124    0.090974   -0.159995
 ---------------------------------------------------------------------
 Rotational constants (GHZ):      5.5772665      2.4029552      1.7978180
 Leave Link  202 at Wed Sep 20 14:34:42 2023, MaxMem=    33554432 cpu:         0.0
 (Enter /mnt/storage/apps/eb/software/gaussian/09/l601.exe)
 Copying SCF densities to generalized density rwf, IOpCl= 0 IROHF=0.

 **********************************************************************

            Population analysis using the SCF density.

 **********************************************************************

 Orbital symmetries:
       Occupied  (A) (A) (A) (A) (A) (A) (A) (A) (A) (A) (A) (A)
                 (A) (A) (A) (A) (A) (A) (A) (A) (A) (A) (A) (A)
                 (A)
       Virtual   (A) (A) (A) (A) (A) (A) (A) (A) (A) (A) (A) (A)
                 (A) (A) (A) (A) (A) (A) (A) (A) (A) (A) (A) (A)
                 (A) (A) (A) (A) (A) (A) (A) (A) (A) (A) (A) (A)
                 (A) (A) (A) (A) (A) (A) (A) (A) (A) (A) (A) (A)
                 (A) (A) (A) (A) (A) (A) (A) (A) (A) (A) (A) (A)
                 (A) (A) (A) (A) (A) (A) (A) (A) (A) (A) (A) (A)
                 (A) (A) (A) (A) (A) (A) (A) (A) (A)
 The electronic state is 1-A.
 Alpha  occ. eigenvalues --  -20.57646 -20.57326 -20.54853 -11.28513 -11.28047
 Alpha  occ. eigenvalues --  -11.26570  -1.39341  -1.37724  -1.35182  -1.03283
 Alpha  occ. eigenvalues --   -0.92296  -0.83500  -0.72601  -0.71417  -0.66371
 Alpha  occ. eigenvalues --   -0.64424  -0.63901  -0.61299  -0.56268  -0.55075
 Alpha  occ. eigenvalues --   -0.51681  -0.49527  -0.45861  -0.45375  -0.42303
 Alpha virt. eigenvalues --    0.20641   0.21262   0.27361   0.27752   0.29942
 Alpha virt. eigenvalues --    0.30500   0.33011   0.35331   0.38061   0.42351
 Alpha virt. eigenvalues --    0.44302   0.45649   0.46273   0.75596   0.77725
 Alpha virt. eigenvalues --    0.80139   0.82009   0.84983   0.88910   0.91375
 Alpha virt. eigenvalues --    0.96288   0.98991   1.06366   1.08740   1.09192
 Alpha virt. eigenvalues --    1.10317   1.11877   1.15413   1.17113   1.18694
 Alpha virt. eigenvalues --    1.20430   1.22535   1.27661   1.28529   1.29607
 Alpha virt. eigenvalues --    1.32077   1.35722   1.42137   1.49210   1.51240
 Alpha virt. eigenvalues --    1.55209   1.65187   1.68580   1.73847   1.76999
 Alpha virt. eigenvalues --    1.86587   1.89615   1.93440   1.99993   2.02095
 Alpha virt. eigenvalues --    2.03548   2.12187   2.15389   2.18592   2.24352
 Alpha virt. eigenvalues --    2.27692   2.37279   2.41153   2.44758   2.46600
 Alpha virt. eigenvalues --    2.48883   2.55073   2.65125   2.68170   2.72118
 Alpha virt. eigenvalues --    2.74494   2.84081   2.87171   2.88254   2.90021
 Alpha virt. eigenvalues --    3.01670   3.11215   3.22481   3.27255   3.30078
 Alpha virt. eigenvalues --    4.12426   4.23052   4.31298   4.64317   4.77222
 Alpha virt. eigenvalues --    4.96591
          Condensed to atoms (all electrons):
               1          2          3          4          5          6
     1  O    8.396108   0.196713  -0.053666   0.001366   0.004156   0.000001
     2  C    0.196713   4.849525   0.350219  -0.042709  -0.064335   0.003263
     3  C   -0.053666   0.350219   4.880194   0.191089   0.369670  -0.039599
     4  O    0.001366  -0.042709   0.191089   8.427609  -0.051471  -0.004384
     5  C    0.004156  -0.064335   0.369670  -0.051471   4.799975   0.225895
     6  O    0.000001   0.003263  -0.039599  -0.004384   0.225895   8.379419
     7  H    0.261883  -0.018790   0.005296  -0.000085  -0.000115   0.000001
     8  H   -0.038911   0.385990  -0.043481   0.001953  -0.008862  -0.000037
     9  H   -0.034088   0.400842  -0.041792   0.003824   0.005578  -0.000052
    10  H    0.003744  -0.039054   0.399613  -0.037362  -0.047507   0.001876
    11  H   -0.000036  -0.005006  -0.025441   0.256045  -0.003026   0.000206
    12  H    0.003672  -0.001324  -0.035167   0.003183   0.398789  -0.035044
    13  H    0.000110   0.000030  -0.051105  -0.002512   0.380947  -0.044076
    14  H   -0.000017   0.000544  -0.012213   0.016187  -0.028105   0.261165
               7          8          9         10         11         12
     1  O    0.261883  -0.038911  -0.034088   0.003744  -0.000036   0.003672
     2  C   -0.018790   0.385990   0.400842  -0.039054  -0.005006  -0.001324
     3  C    0.005296  -0.043481  -0.041792   0.399613  -0.025441  -0.035167
     4  O   -0.000085   0.001953   0.003824  -0.037362   0.256045   0.003183
     5  C   -0.000115  -0.008862   0.005578  -0.047507  -0.003026   0.398789
     6  O    0.000001  -0.000037  -0.000052   0.001876   0.000206  -0.035044
     7  H    0.310809  -0.003128  -0.003687  -0.000249  -0.000005  -0.000027
     8  H   -0.003128   0.612084  -0.046338   0.005322   0.004639   0.000457
     9  H   -0.003687  -0.046338   0.556265  -0.006552  -0.000597  -0.000062
    10  H   -0.000249   0.005322  -0.006552   0.510364   0.005804  -0.001707
    11  H   -0.000005   0.004639  -0.000597   0.005804   0.328434   0.000014
    12  H   -0.000027   0.000457  -0.000062  -0.001707   0.000014   0.499693
    13  H   -0.000042   0.003952  -0.000230   0.005447   0.003536  -0.035470
    14  H    0.000001  -0.000017  -0.000017  -0.000528  -0.000352   0.005169
              13         14
     1  O    0.000110  -0.000017
     2  C    0.000030   0.000544
     3  C   -0.051105  -0.012213
     4  O   -0.002512   0.016187
     5  C    0.380947  -0.028105
     6  O   -0.044076   0.261165
     7  H   -0.000042   0.000001
     8  H    0.003952  -0.000017
     9  H   -0.000230  -0.000017
    10  H    0.005447  -0.000528
    11  H    0.003536  -0.000352
    12  H   -0.035470   0.005169
    13  H    0.623348  -0.001260
    14  H   -0.001260   0.309069
 Mulliken charges:
               1
     1  O   -0.741034
     2  C   -0.015909
     3  C    0.106383
     4  O   -0.762734
     5  C    0.018410
     6  O   -0.748633
     7  H    0.448137
     8  H    0.126378
     9  H    0.166906
    10  H    0.200790
    11  H    0.435783
    12  H    0.197825
    13  H    0.117325
    14  H    0.450373
 Sum of Mulliken charges =   0.00000
 Mulliken charges with hydrogens summed into heavy atoms:
               1
     1  O   -0.292897
     2  C    0.277375
     3  C    0.307173
     4  O   -0.326951
     5  C    0.333559
     6  O   -0.298260
 Electronic spatial extent (au):  <R**2>=            666.8318
 Charge=              0.0000 electrons
 Dipole moment (field-independent basis, Debye):
    X=              2.8080    Y=              1.7635    Z=              2.2367  Tot=              3.9997
 Quadrupole moment (field-independent basis, Debye-Ang):
   XX=            -33.1464   YY=            -40.5620   ZZ=            -35.0924
   XY=             -2.5329   XZ=             -0.0637   YZ=              1.8766
 Traceless Quadrupole moment (field-independent basis, Debye-Ang):
   XX=              3.1205   YY=             -4.2951   ZZ=              1.1746
   XY=             -2.5329   XZ=             -0.0637   YZ=              1.8766
 Octapole moment (field-independent basis, Debye-Ang**2):
  XXX=             31.7844  YYY=             -1.8525  ZZZ=              0.3469  XYY=              3.8076
  XXY=             10.1303  XXZ=              4.6780  XZZ=             -1.6433  YZZ=              4.1345
  YYZ=              6.3452  XYZ=             -2.5222
 Hexadecapole moment (field-independent basis, Debye-Ang**3):
 XXXX=           -382.1968 YYYY=           -223.9890 ZZZZ=            -64.2737 XXXY=            -54.1630
 XXXZ=              8.6859 YYYX=             -5.3592 YYYZ=             12.9311 ZZZX=             -0.5781
 ZZZY=              4.1984 XXYY=           -128.5096 XXZZ=            -95.4170 YYZZ=            -44.1069
 XXYZ=             -3.9006 YYXZ=             -4.6556 ZZXY=             -3.9576
 N-N= 2.636151527495D+02 E-N=-1.335321328955D+03  KE= 3.422788605411D+02
 No NMR shielding tensors so no spin-rotation constants.
 Leave Link  601 at Wed Sep 20 14:34:42 2023, MaxMem=    33554432 cpu:         0.1
 (Enter /mnt/storage/apps/eb/software/gaussian/09/l9999.exe)
 1\1\GINC-SB084\FOpt\RHF\6-31G(d)\C3H8O3\NCA121\20-Sep-2023\0\\#P hf/6-
 31G* scf(qc) opt(tight,maxcycle=100)\\Gaussian input prepared by ASE\\
 0,1\O,1.7372764566,-1.1964381758,0.1821718734\C,1.3330098745,0.1441112
 419,0.1708453343\C,-0.0909687846,0.2078006254,-0.3581856145\O,-0.51331
 7238,1.5526870709,-0.448746875\C,-1.0848215096,-0.5904606035,0.4719086
 426\O,-2.368960349,-0.5085255263,-0.0727018259\H,2.6415223992,-1.26008
 91023,0.4544634549\H,1.3710559749,0.5705857244,1.1747866496\H,1.968443
 6257,0.7486438723,-0.4699157497\H,-0.1070382805,-0.1679856468,-1.37222
 45857\H,-0.4738745139,1.9580975791,0.4085410504\H,-0.8064173864,-1.633
 2255961,0.4957689869\H,-1.0751491395,-0.2192875459,1.4999061598\H,-2.5
 307611293,0.3940860826,-0.3158305013\\Version=ES64L-G09RevD.01\State=1
 -A\HF=-342.8099269\RMSD=0.000e+00\RMSF=4.669e-07\Dipole=1.1866341,0.70
 24056,0.75815\Quadrupole=1.5140301,-1.5691937,0.0551636,-2.5990124,0.8
 726164,1.9418867\PG=C01 [X(C3H8O3)]\\@


 THERE ARE PEOPLE SO ADDICTED TO EXAGERATING THEY
 CAN'T TELL THE TRUTH WITHOUT LYING. -- FORTUNE COOKIE
 Job cpu time:       0 days  0 hours  1 minutes  0.3 seconds.
 File lengths (MBytes):  RWF=      6 Int=      0 D2E=      0 Chk=      2 Scr=      1
 Normal termination of Gaussian 09 at Wed Sep 20 14:34:42 2023.
