 Entering Gaussian System, Link 0=g09
 Initial command:
 /mnt/storage/apps/eb/software/gaussian/09/l1.exe "/scratch/nca121/18446470/Gau-42595.inp" -scrdir="/scratch/nca121/18446470/"
 Entering Link 1 = /mnt/storage/apps/eb/software/gaussian/09/l1.exe PID=     42596.
  
 Copyright (c) 1988,1990,1992,1993,1995,1998,2003,2009,2013,
            Gaussian, Inc.  All Rights Reserved.
  
 This is part of the Gaussian(R) 09 program.  It is based on
 the Gaussian(R) 03 system (copyright 2003, Gaussian, Inc.),
 the Gaussian(R) 98 system (copyright 1998, Gaussian, Inc.),
 the Gaussian(R) 94 system (copyright 1995, Gaussian, Inc.),
 the Gaussian 92(TM) system (copyright 1992, Gaussian, Inc.),
 the Gaussian 90(TM) system (copyright 1990, Gaussian, Inc.),
 the Gaussian 88(TM) system (copyright 1988, Gaussian, Inc.),
 the Gaussian 86(TM) system (copyright 1986, Carnegie Mellon
 University), and the Gaussian 82(TM) system (copyright 1983,
 Carnegie Mellon University). Gaussian is a federally registered
 trademark of Gaussian, Inc.
  
 This software contains proprietary and confidential information,
 including trade secrets, belonging to Gaussian, Inc.
  
 This software is provided under written license and may be
 used, copied, transmitted, or stored only in accord with that
 written license.
  
 The following legend is applicable only to US Government
 contracts under FAR:
  
                    RESTRICTED RIGHTS LEGEND
  
 Use, reproduction and disclosure by the US Government is
 subject to restrictions as set forth in subparagraphs (a)
 and (c) of the Commercial Computer Software - Restricted
 Rights clause in FAR 52.227-19.
  
 Gaussian, Inc.
 340 Quinnipiac St., Bldg. 40, Wallingford CT 06492
  
  
 ---------------------------------------------------------------
 Warning -- This program may not be used in any manner that
 competes with the business of Gaussian, Inc. or will provide
 assistance to any competitor of Gaussian, Inc.  The licensee
 of this program is prohibited from giving any competitor of
 Gaussian, Inc. access to this program.  By using this program,
 the user acknowledges that Gaussian, Inc. is engaged in the
 business of creating and licensing software in the field of
 computational chemistry and represents and warrants to the
 licensee that it is not a competitor of Gaussian, Inc. and that
 it will not use this program in any manner prohibited above.
 ---------------------------------------------------------------
  

 Cite this work as:
 Gaussian 09, Revision D.01,
 M. J. Frisch, G. W. Trucks, H. B. Schlegel, G. E. Scuseria, 
 M. A. Robb, J. R. Cheeseman, G. Scalmani, V. Barone, B. Mennucci, 
 G. A. Petersson, H. Nakatsuji, M. Caricato, X. Li, H. P. Hratchian, 
 A. F. Izmaylov, J. Bloino, G. Zheng, J. L. Sonnenberg, M. Hada, 
 M. Ehara, K. Toyota, R. Fukuda, J. Hasegawa, M. Ishida, T. Nakajima, 
 Y. Honda, O. Kitao, H. Nakai, T. Vreven, J. A. Montgomery, Jr., 
 J. E. Peralta, F. Ogliaro, M. Bearpark, J. J. Heyd, E. Brothers, 
 K. N. Kudin, V. N. Staroverov, T. Keith, R. Kobayashi, J. Normand, 
 K. Raghavachari, A. Rendell, J. C. Burant, S. S. Iyengar, J. Tomasi, 
 M. Cossi, N. Rega, J. M. Millam, M. Klene, J. E. Knox, J. B. Cross, 
 V. Bakken, C. Adamo, J. Jaramillo, R. Gomperts, R. E. Stratmann, 
 O. Yazyev, A. J. Austin, R. Cammi, C. Pomelli, J. W. Ochterski, 
 R. L. Martin, K. Morokuma, V. G. Zakrzewski, G. A. Voth, 
 P. Salvador, J. J. Dannenberg, S. Dapprich, A. D. Daniels, 
 O. Farkas, J. B. Foresman, J. V. Ortiz, J. Cioslowski, 
 and D. J. Fox, Gaussian, Inc., Wallingford CT, 2013.
 
 ******************************************
 Gaussian 09:  ES64L-G09RevD.01 24-Apr-2013
                20-Sep-2023 
 ******************************************
 --------------------------------------------
 #P hf/6-31G* scf(qc) opt(tight,maxcycle=100)
 --------------------------------------------
 1/6=100,7=10,18=20,19=15,38=1/1,3;
 2/9=110,12=2,17=6,18=5,40=1/2;
 3/5=1,6=6,7=1,11=9,16=1,25=1,30=1,71=1/1,2,3;
 4//1;
 5/5=2,8=3,38=5/8;
 6/7=2,8=2,9=2,10=2,28=1/1;
 7//1,2,3,16;
 1/6=100,7=10,18=20,19=15/3(2);
 2/9=110/2;
 99//99;
 2/9=110/2;
 3/5=1,6=6,7=1,11=9,16=1,25=1,30=1,71=1/1,2,3;
 4/5=5,16=3,69=1/1;
 5/5=2,8=3,38=5/8;
 7//1,2,3,16;
 1/6=100,7=10,18=20,19=15/3(-5);
 2/9=110/2;
 6/7=2,8=2,9=2,10=2,19=2,28=1/1;
 99/9=1/99;
 Leave Link    1 at Wed Sep 20 14:28:30 2023, MaxMem=           0 cpu:         0.0
 (Enter /mnt/storage/apps/eb/software/gaussian/09/l101.exe)
 ------------------------------
 Gaussian input prepared by ASE
 ------------------------------
 Symbolic Z-matrix:
 Charge =  0 Multiplicity = 1
 O                    -1.68849  -1.10388   0.43771 
 C                    -1.29116   0.22703   0.35634 
 C                     0.05703   0.36866  -0.31712 
 O                     0.46767   1.67541  -0.40763 
 C                     1.10066  -0.41763   0.44819 
 O                     2.28975  -0.30654  -0.2817 
 H                    -1.76859  -1.51175  -0.45597 
 H                    -1.14157   0.56654   1.42298 
 H                    -2.06985   0.81756  -0.11416 
 H                    -0.03075  -0.10635  -1.32307 
 H                    -0.19491   2.26236  -0.81461 
 H                     1.20959   0.0745    1.43356 
 H                     0.74721  -1.45615   0.5223 
 H                     2.3134   -1.08975  -0.90682 
 
 NAtoms=     14 NQM=       14 NQMF=       0 NMMI=      0 NMMIF=      0
                NMic=       0 NMicF=      0.
                    Isotopes and Nuclear Properties:
 (Nuclear quadrupole moments (NQMom) in fm**2, nuclear magnetic moments (NMagM)
  in nuclear magnetons)

  Atom         1           2           3           4           5           6           7           8           9          10
 IAtWgt=          16          12          12          16          12          16           1           1           1           1
 AtmWgt=  15.9949146  12.0000000  12.0000000  15.9949146  12.0000000  15.9949146   1.0078250   1.0078250   1.0078250   1.0078250
 NucSpn=           0           0           0           0           0           0           1           1           1           1
 AtZEff=   0.0000000   0.0000000   0.0000000   0.0000000   0.0000000   0.0000000   0.0000000   0.0000000   0.0000000   0.0000000
 NQMom=    0.0000000   0.0000000   0.0000000   0.0000000   0.0000000   0.0000000   0.0000000   0.0000000   0.0000000   0.0000000
 NMagM=    0.0000000   0.0000000   0.0000000   0.0000000   0.0000000   0.0000000   2.7928460   2.7928460   2.7928460   2.7928460
 AtZNuc=   8.0000000   6.0000000   6.0000000   8.0000000   6.0000000   8.0000000   1.0000000   1.0000000   1.0000000   1.0000000

  Atom        11          12          13          14
 IAtWgt=           1           1           1           1
 AtmWgt=   1.0078250   1.0078250   1.0078250   1.0078250
 NucSpn=           1           1           1           1
 AtZEff=   0.0000000   0.0000000   0.0000000   0.0000000
 NQMom=    0.0000000   0.0000000   0.0000000   0.0000000
 NMagM=    2.7928460   2.7928460   2.7928460   2.7928460
 AtZNuc=   1.0000000   1.0000000   1.0000000   1.0000000
 Leave Link  101 at Wed Sep 20 14:28:31 2023, MaxMem=    33554432 cpu:         0.1
 (Enter /mnt/storage/apps/eb/software/gaussian/09/l103.exe)

 GradGradGradGradGradGradGradGradGradGradGradGradGradGradGradGradGradGrad
 Berny optimization.
 Initialization pass.
                           ----------------------------
                           !    Initial Parameters    !
                           ! (Angstroms and Degrees)  !
 --------------------------                            --------------------------
 ! Name  Definition              Value          Derivative Info.                !
 --------------------------------------------------------------------------------
 ! R1    R(1,2)                  1.3913         estimate D2E/DX2                !
 ! R2    R(1,7)                  0.9856         estimate D2E/DX2                !
 ! R3    R(2,3)                  1.5137         estimate D2E/DX2                !
 ! R4    R(2,8)                  1.1293         estimate D2E/DX2                !
 ! R5    R(2,9)                  1.0846         estimate D2E/DX2                !
 ! R6    R(3,4)                  1.3727         estimate D2E/DX2                !
 ! R7    R(3,5)                  1.5143         estimate D2E/DX2                !
 ! R8    R(3,10)                 1.1159         estimate D2E/DX2                !
 ! R9    R(4,11)                 0.9742         estimate D2E/DX2                !
 ! R10   R(5,6)                  1.3996         estimate D2E/DX2                !
 ! R11   R(5,12)                 1.1068         estimate D2E/DX2                !
 ! R12   R(5,13)                 1.0995         estimate D2E/DX2                !
 ! R13   R(6,14)                 1.0024         estimate D2E/DX2                !
 ! A1    A(2,1,7)              111.4707         estimate D2E/DX2                !
 ! A2    A(1,2,3)              111.708          estimate D2E/DX2                !
 ! A3    A(1,2,8)              105.6739         estimate D2E/DX2                !
 ! A4    A(1,2,9)              109.9467         estimate D2E/DX2                !
 ! A5    A(3,2,8)              105.9091         estimate D2E/DX2                !
 ! A6    A(3,2,9)              113.2968         estimate D2E/DX2                !
 ! A7    A(8,2,9)              109.9459         estimate D2E/DX2                !
 ! A8    A(2,3,4)              112.6335         estimate D2E/DX2                !
 ! A9    A(2,3,5)              109.9011         estimate D2E/DX2                !
 ! A10   A(2,3,10)             106.9284         estimate D2E/DX2                !
 ! A11   A(4,3,5)              108.7505         estimate D2E/DX2                !
 ! A12   A(4,3,10)             111.6721         estimate D2E/DX2                !
 ! A13   A(5,3,10)             106.7848         estimate D2E/DX2                !
 ! A14   A(3,4,11)             113.429          estimate D2E/DX2                !
 ! A15   A(3,5,6)              106.3044         estimate D2E/DX2                !
 ! A16   A(3,5,12)             106.6719         estimate D2E/DX2                !
 ! A17   A(3,5,13)             107.6352         estimate D2E/DX2                !
 ! A18   A(6,5,12)             110.2043         estimate D2E/DX2                !
 ! A19   A(6,5,13)             112.5331         estimate D2E/DX2                !
 ! A20   A(12,5,13)            113.0539         estimate D2E/DX2                !
 ! A21   A(5,6,14)             106.4536         estimate D2E/DX2                !
 ! D1    D(7,1,2,3)            -60.352          estimate D2E/DX2                !
 ! D2    D(7,1,2,8)           -175.069          estimate D2E/DX2                !
 ! D3    D(7,1,2,9)             66.327          estimate D2E/DX2                !
 ! D4    D(1,2,3,4)            179.9929         estimate D2E/DX2                !
 ! D5    D(1,2,3,5)            -58.5856         estimate D2E/DX2                !
 ! D6    D(1,2,3,10)            56.959          estimate D2E/DX2                !
 ! D7    D(8,2,3,4)            -65.435          estimate D2E/DX2                !
 ! D8    D(8,2,3,5)             55.9865         estimate D2E/DX2                !
 ! D9    D(8,2,3,10)           171.5311         estimate D2E/DX2                !
 ! D10   D(9,2,3,4)             55.1583         estimate D2E/DX2                !
 ! D11   D(9,2,3,5)            176.5798         estimate D2E/DX2                !
 ! D12   D(9,2,3,10)           -67.8756         estimate D2E/DX2                !
 ! D13   D(2,3,4,11)           -52.4167         estimate D2E/DX2                !
 ! D14   D(5,3,4,11)          -174.4903         estimate D2E/DX2                !
 ! D15   D(10,3,4,11)           67.9251         estimate D2E/DX2                !
 ! D16   D(2,3,5,6)            176.2743         estimate D2E/DX2                !
 ! D17   D(2,3,5,12)           -66.13           estimate D2E/DX2                !
 ! D18   D(2,3,5,13)            55.4805         estimate D2E/DX2                !
 ! D19   D(4,3,5,6)            -60.0077         estimate D2E/DX2                !
 ! D20   D(4,3,5,12)            57.588          estimate D2E/DX2                !
 ! D21   D(4,3,5,13)           179.1985         estimate D2E/DX2                !
 ! D22   D(10,3,5,6)            60.6388         estimate D2E/DX2                !
 ! D23   D(10,3,5,12)          178.2345         estimate D2E/DX2                !
 ! D24   D(10,3,5,13)          -60.155          estimate D2E/DX2                !
 ! D25   D(3,5,6,14)           -91.6984         estimate D2E/DX2                !
 ! D26   D(12,5,6,14)          153.0778         estimate D2E/DX2                !
 ! D27   D(13,5,6,14)           25.8887         estimate D2E/DX2                !
 --------------------------------------------------------------------------------
 Trust Radius=3.00D-01 FncErr=1.00D-07 GrdErr=1.00D-07
 Number of steps in this run=    100 maximum allowed number of steps=    100.
 GradGradGradGradGradGradGradGradGradGradGradGradGradGradGradGradGradGrad

 Leave Link  103 at Wed Sep 20 14:28:32 2023, MaxMem=    33554432 cpu:         0.0
 (Enter /mnt/storage/apps/eb/software/gaussian/09/l202.exe)
                          Input orientation:                          
 ---------------------------------------------------------------------
 Center     Atomic      Atomic             Coordinates (Angstroms)
 Number     Number       Type             X           Y           Z
 ---------------------------------------------------------------------
      1          8           0       -1.688489   -1.103878    0.437713
      2          6           0       -1.291159    0.227030    0.356341
      3          6           0        0.057034    0.368659   -0.317119
      4          8           0        0.467665    1.675406   -0.407634
      5          6           0        1.100664   -0.417629    0.448190
      6          8           0        2.289754   -0.306538   -0.281702
      7          1           0       -1.768590   -1.511745   -0.455971
      8          1           0       -1.141565    0.566537    1.422983
      9          1           0       -2.069852    0.817558   -0.114164
     10          1           0       -0.030753   -0.106350   -1.323074
     11          1           0       -0.194913    2.262355   -0.814609
     12          1           0        1.209588    0.074496    1.433558
     13          1           0        0.747214   -1.456146    0.522302
     14          1           0        2.313402   -1.089754   -0.906815
 ---------------------------------------------------------------------
                    Distance matrix (angstroms):
                    1          2          3          4          5
     1  O    0.000000
     2  C    1.391333   0.000000
     3  C    2.405200   1.513681   0.000000
     4  O    3.617738   2.403105   1.372734   0.000000
     5  C    2.872355   2.478879   1.514302   2.348173   0.000000
     6  O    4.120646   3.676239   2.332849   2.695175   1.399649
     7  H    0.985618   1.977658   2.624519   3.893726   3.201127
     8  H    2.014986   1.129322   2.122204   2.677755   2.635601
     9  H    2.035171   1.084648   2.183196   2.694628   3.448782
    10  H    2.616013   2.126076   1.115924   2.064244   2.124706
    11  H    3.889808   2.591414   1.974097   0.974242   3.233496
    12  H    3.283157   2.727159   2.116550   2.550167   1.106798
    13  H    2.462498   2.648696   2.123885   3.278650   1.099517
    14  H    4.221740   4.040092   2.750619   3.361850   1.938691
                    6          7          8          9         10
     6  O    0.000000
     7  H    4.237104   0.000000
     8  H    3.929652   2.871042   0.000000
     9  H    4.505311   2.373445   1.813160   0.000000
    10  H    2.551330   2.397307   3.037682   2.544208   0.000000
    11  H    3.613415   4.104743   2.962898   2.468493   2.428219
    12  H    2.062538   3.867302   2.402111   3.701663   3.028229
    13  H    2.085054   2.699885   2.910319   3.675688   2.415076
    14  H    1.002374   4.128437   4.484201   4.845519   2.575930
                   11         12         13         14
    11  H    0.000000
    12  H    3.437093   0.000000
    13  H    4.062288   1.840392   0.000000
    14  H    4.187694   2.837469   2.151642   0.000000
 Stoichiometry    C3H8O3
 Framework group  C1[X(C3H8O3)]
 Deg. of freedom    36
 Full point group                 C1      NOp   1
 Largest Abelian subgroup         C1      NOp   1
 Largest concise Abelian subgroup C1      NOp   1
                         Standard orientation:                         
 ---------------------------------------------------------------------
 Center     Atomic      Atomic             Coordinates (Angstroms)
 Number     Number       Type             X           Y           Z
 ---------------------------------------------------------------------
      1          8           0       -2.026221   -0.859961   -0.086544
      2          6           0       -1.419916    0.359404    0.198682
      3          6           0        0.024282    0.386002   -0.253882
      4          8           0        0.641281    1.581648    0.018410
      5          6           0        0.797307   -0.726045    0.423534
      6          8           0        2.090727   -0.686966   -0.109906
      7          1           0       -2.024113   -1.046255   -1.054394
      8          1           0       -1.392588    0.430380    1.325441
      9          1           0       -2.012224    1.171478   -0.208956
     10          1           0        0.026511    0.160608   -1.346804
     11          1           0        0.151429    2.355058   -0.314801
     12          1           0        0.821633   -0.483817    1.503226
     13          1           0        0.280182   -1.671655    0.205954
     14          1           0        2.092837   -1.309732   -0.895343
 ---------------------------------------------------------------------
 Rotational constants (GHZ):      5.3951663      2.5123492      1.8618802
 Leave Link  202 at Wed Sep 20 14:28:33 2023, MaxMem=    33554432 cpu:         0.0
 (Enter /mnt/storage/apps/eb/software/gaussian/09/l301.exe)
 Standard basis: 6-31G(d) (6D, 7F)
 Ernie: Thresh=  0.10000D-02 Tol=  0.10000D-05 Strict=F.
 There are   106 symmetry adapted cartesian basis functions of A   symmetry.
 There are   106 symmetry adapted basis functions of A   symmetry.
   106 basis functions,   200 primitive gaussians,   106 cartesian basis functions
    25 alpha electrons       25 beta electrons
       nuclear repulsion energy       264.7979616861 Hartrees.
 IExCor=    0 DFT=F Ex=HF Corr=None ExCW=0 ScaHFX=  1.000000
 ScaDFX=  1.000000  1.000000  1.000000  1.000000 ScalE2=  1.000000  1.000000
 IRadAn=      0 IRanWt=     -1 IRanGd=            0 ICorTp=0 IEmpDi=  4
 NAtoms=   14 NActive=   14 NUniq=   14 SFac= 1.00D+00 NAtFMM=   60 NAOKFM=F Big=F
 Integral buffers will be    131072 words long.
 Raffenetti 1 integral format.
 Two-electron integral symmetry is turned on.
 Leave Link  301 at Wed Sep 20 14:28:33 2023, MaxMem=    33554432 cpu:         0.0
 (Enter /mnt/storage/apps/eb/software/gaussian/09/l302.exe)
 NPDir=0 NMtPBC=     1 NCelOv=     1 NCel=       1 NClECP=     1 NCelD=      1
         NCelK=      1 NCelE2=     1 NClLst=     1 CellRange=     0.0.
 One-electron integrals computed using PRISM.
 NBasis=   106 RedAO= T EigKep=  2.96D-03  NBF=   106
 NBsUse=   106 1.00D-06 EigRej= -1.00D+00 NBFU=   106
 Leave Link  302 at Wed Sep 20 14:28:34 2023, MaxMem=    33554432 cpu:         0.1
 (Enter /mnt/storage/apps/eb/software/gaussian/09/l303.exe)
 DipDrv:  MaxL=1.
 Leave Link  303 at Wed Sep 20 14:28:34 2023, MaxMem=    33554432 cpu:         0.0
 (Enter /mnt/storage/apps/eb/software/gaussian/09/l401.exe)
 ExpMin= 1.61D-01 ExpMax= 5.48D+03 ExpMxC= 8.25D+02 IAcc=1 IRadAn=         1 AccDes= 0.00D+00
 Harris functional with IExCor=  205 and IRadAn=       1 diagonalized for initial guess.
 HarFok:  IExCor=  205 AccDes= 0.00D+00 IRadAn=         1 IDoV= 1 UseB2=F ITyADJ=14
 ICtDFT=  3500011 ScaDFX=  1.000000  1.000000  1.000000  1.000000
 FoFCou: FMM=F IPFlag=           0 FMFlag=      100000 FMFlg1=           0
         NFxFlg=           0 DoJE=T BraDBF=F KetDBF=T FulRan=T
         wScrn=  0.000000 ICntrl=     500 IOpCl=  0 I1Cent=   200000004 NGrid=           0
         NMat0=    1 NMatS0=      1 NMatT0=    0 NMatD0=    1 NMtDS0=    0 NMtDT0=    0
 Petite list used in FoFCou.
 Harris En= -343.190880688888    
 JPrj=0 DoOrth=F DoCkMO=F.
 Leave Link  401 at Wed Sep 20 14:28:36 2023, MaxMem=    33554432 cpu:         0.3
 (Enter /mnt/storage/apps/eb/software/gaussian/09/l508.exe)
 Direct SCF.
 Tight linear equation convergence will be used.
 RHF wavefunction.
 Quadratic Convergence SCF Method.
 Line search only if initial step raises energy.
 Integral symmetry usage will be decided dynamically.
 ReadGW:  IGet=1 IStart=         402 Next=         402 LGW=           0.
 Keep R1 ints in memory in canonical form, NReq=17056714.
 FoFCou: FMM=F IPFlag=           0 FMFlag=           0 FMFlg1=           0
         NFxFlg=           0 DoJE=F BraDBF=F KetDBF=F FulRan=T
         wScrn=  0.000000 ICntrl=     600 IOpCl=  0 I1Cent=           0 NGrid=           0
         NMat0=    1 NMatS0=   5671 NMatT0=    0 NMatD0=    1 NMtDS0=    0 NMtDT0=    0
 Symmetry not used in FoFCou.
 Iteration   1 EE= -342.531067885900                                    Grad=9.407D-01 Max rot=    8.2910 deg.
 Gradient too large for Newton-Raphson -- use scaled steepest descent instead.
 Alpha Gap=     0.624 HL deriv= 5.29D-03
     ILin= 1 X=0.000D+00 Y=-3.425310678859D+02 DE= 0.00D+00 F= -7.12D-01
     ILin= 2 X=3.000D-01 Y=-3.426980419609D+02 DE=-1.67D-01 F= -4.01D-01
     ILin= 3 X=5.000D-01 Y=-3.427571906867D+02 DE=-2.26D-01 F= -1.91D-01
     ILin= 4 X=9.000D-01 Y=-3.427488285973D+02 DE=-2.18D-01 F=  2.33D-01
     An  expanding polynomial of degree  4 produced  0.6805
 Iteration   2 EE= -342.774387008969     Delta-E=       -0.243319123070 Grad=2.989D-01 Max rot=    3.5844 deg.
 Gradient too large for Newton-Raphson -- use scaled steepest descent instead.
 Alpha Gap=     0.684 HL deriv= 2.77D-03
     ILin= 1 X=0.000D+00 Y=-3.427743870090D+02 DE= 0.00D+00 F= -2.84D-02
     ILin= 2 X=5.000D-01 Y=-3.427845985957D+02 DE=-1.02D-02 F= -1.24D-02
     ILin= 3 X=9.000D-01 Y=-3.427870218190D+02 DE=-1.26D-02 F=  3.06D-04
     Accept linear search using points  2 and  3.
     An  expanding polynomial of degree  3 produced  0.7490
 Iteration   3 EE= -342.786705587967     Delta-E=       -0.012318578998 Grad=8.766D-02 Max rot=    0.8677 deg.
 Gradient too large for Newton-Raphson -- use scaled steepest descent instead.
 Alpha Gap=     0.679 HL deriv= 6.91D-06
     ILin= 1 X=0.000D+00 Y=-3.427867055880D+02 DE= 0.00D+00 F= -3.47D-03
     ILin= 2 X=7.000D-01 Y=-3.427882652587D+02 DE=-1.56D-03 F= -9.86D-04
     Reject lnstep minimum 1.120D+00 FVal=-3.427886904261D+02 Lims=  0.00D+00  7.00D-01
     ILin= 3 X=1.400D+00 Y=-3.427880857268D+02 DE=-1.38D-03 F=  1.50D-03
     An  expanding polynomial of degree  3 produced  0.9777
 Iteration   4 EE= -342.788402156688     Delta-E=       -0.001696568721 Grad=2.297D-02 Max rot=    0.1197 deg.
 Gradient too large for Newton-Raphson -- use scaled steepest descent instead.
 Alpha Gap=     0.684 HL deriv= 3.20D-04
     ILin= 1 X=0.000D+00 Y=-3.427884021567D+02 DE= 0.00D+00 F= -6.12D-04
     ILin= 2 X=9.000D-01 Y=-3.427885935216D+02 DE=-1.91D-04 F=  1.86D-04
     Accept linear search using points  1 and  2.
     An  expanding polynomial of degree  2 produced  0.6621
 Iteration   5 EE= -342.788612788931     Delta-E=       -0.000210632243 Grad=7.380D-03 Max rot=    0.0376 deg.
 QCNR:  CnvC1=6.36D-09 CnvC2=6.36D-08
 LinEq1:  Iter=  0 NonCon=     1 RMS=8.45D-05 Max=9.83D-04 NDo=     1
 AX will form     1 AO Fock derivatives at one time.
 LinEq1:  Iter=  1 NonCon=     1 RMS=2.79D-05 Max=1.74D-04 NDo=     1
 LinEq1:  Iter=  2 NonCon=     1 RMS=5.59D-06 Max=4.37D-05 NDo=     1
 LinEq1:  Iter=  3 NonCon=     1 RMS=7.54D-07 Max=8.20D-06 NDo=     1
 LinEq1:  Iter=  4 NonCon=     1 RMS=2.40D-07 Max=1.60D-06 NDo=     1
 LinEq1:  Iter=  5 NonCon=     1 RMS=6.82D-08 Max=5.72D-07 NDo=     1
 LinEq1:  Iter=  6 NonCon=     1 RMS=1.75D-08 Max=1.18D-07 NDo=     1
 LinEq1:  Iter=  7 NonCon=     0 RMS=5.70D-09 Max=4.58D-08 NDo=     1
 Linear equations converged to 6.364D-09 6.364D-08 after     7 iterations.
 Angle between quadratic step and gradient=  35.30 degrees.
     ILin= 1 X=0.000D+00 Y=-3.427886127889D+02 DE= 0.00D+00 F= -9.13D-05
     ILin= 2 X=1.000D+00 Y=-3.427886584403D+02 DE=-4.57D-05 F=  3.29D-08
     Accept linear search using points  1 and  2.
     An  expanding polynomial of degree  2 produced  0.9996
     Minimum is close to point  2 DX= -3.60D-04 DF= -5.91D-12 DXR=  3.60D-04 DFR=  1.29D-07 which will be used.
 Iteration   6 EE= -342.788658440321     Delta-E=       -0.000045651390 Grad=6.058D-06 Max rot=    0.0000 deg.
 QCNR:  CnvC1=6.06D-11 CnvC2=6.06D-10
 LinEq1:  Iter=  0 NonCon=     1 RMS=8.52D-08 Max=7.40D-07 NDo=     1
 LinEq1:  Iter=  1 NonCon=     1 RMS=2.76D-08 Max=1.89D-07 NDo=     1
 LinEq1:  Iter=  2 NonCon=     1 RMS=4.48D-09 Max=4.36D-08 NDo=     1
 LinEq1:  Iter=  3 NonCon=     1 RMS=1.61D-09 Max=1.18D-08 NDo=     1
 LinEq1:  Iter=  4 NonCon=     1 RMS=4.09D-10 Max=2.90D-09 NDo=     1
 LinEq1:  Iter=  5 NonCon=     1 RMS=1.06D-10 Max=8.33D-10 NDo=     1
 LinEq1:  Iter=  6 NonCon=     0 RMS=3.18D-11 Max=2.12D-10 NDo=     1
 Linear equations converged to 6.058D-11 6.058D-10 after     6 iterations.
 Angle between quadratic step and gradient=  36.82 degrees.
     ILin= 1 X=0.000D+00 Y=-3.427886584403D+02 DE= 0.00D+00 F= -5.73D-11
     ILin= 2 X=1.000D+00 Y=-3.427886584404D+02 DE=-2.98D-11
 Iteration   7 EE= -342.788658440350     Delta-E=       -0.000000000030 Grad=4.194D-09 Max rot=    0.0000 deg.
 Rotation gradient small -- convergence achieved.
 SCF Done:  E(RHF) =  -342.788658440     a.u. after    7 cycles
            Convg  =    0.4194D-08                    28 Fock formations.
              S**2 =  0.0000                  -V/T =  2.0021
 Leave Link  508 at Wed Sep 20 14:28:38 2023, MaxMem=    33554432 cpu:         1.3
 (Enter /mnt/storage/apps/eb/software/gaussian/09/l601.exe)
 Copying SCF densities to generalized density rwf, IOpCl= 0 IROHF=0.

 **********************************************************************

            Population analysis using the SCF density.

 **********************************************************************

 Orbital symmetries:
       Occupied  (A) (A) (A) (A) (A) (A) (A) (A) (A) (A) (A) (A)
                 (A) (A) (A) (A) (A) (A) (A) (A) (A) (A) (A) (A)
                 (A)
       Virtual   (A) (A) (A) (A) (A) (A) (A) (A) (A) (A) (A) (A)
                 (A) (A) (A) (A) (A) (A) (A) (A) (A) (A) (A) (A)
                 (A) (A) (A) (A) (A) (A) (A) (A) (A) (A) (A) (A)
                 (A) (A) (A) (A) (A) (A) (A) (A) (A) (A) (A) (A)
                 (A) (A) (A) (A) (A) (A) (A) (A) (A) (A) (A) (A)
                 (A) (A) (A) (A) (A) (A) (A) (A) (A) (A) (A) (A)
                 (A) (A) (A) (A) (A) (A) (A) (A) (A)
 The electronic state is 1-A.
 Alpha  occ. eigenvalues --  -20.57408 -20.56552 -20.55820 -11.28012 -11.27642
 Alpha  occ. eigenvalues --  -11.27053  -1.38705  -1.36902  -1.34578  -1.02705
 Alpha  occ. eigenvalues --   -0.91426  -0.81579  -0.73326  -0.70001  -0.67592
 Alpha  occ. eigenvalues --   -0.64499  -0.60783  -0.59746  -0.57074  -0.53954
 Alpha  occ. eigenvalues --   -0.50728  -0.48975  -0.47538  -0.42697  -0.41359
 Alpha virt. eigenvalues --    0.20076   0.21174   0.22512   0.26405   0.29932
 Alpha virt. eigenvalues --    0.31368   0.32918   0.34668   0.40525   0.41966
 Alpha virt. eigenvalues --    0.43947   0.46859   0.49228   0.74782   0.78626
 Alpha virt. eigenvalues --    0.81390   0.82271   0.84888   0.90581   0.93022
 Alpha virt. eigenvalues --    0.97211   0.99022   1.02832   1.05772   1.07476
 Alpha virt. eigenvalues --    1.09695   1.12736   1.13738   1.15597   1.17070
 Alpha virt. eigenvalues --    1.18715   1.21252   1.26278   1.28001   1.31385
 Alpha virt. eigenvalues --    1.32601   1.36345   1.42640   1.44837   1.47751
 Alpha virt. eigenvalues --    1.62514   1.64950   1.71306   1.75251   1.82577
 Alpha virt. eigenvalues --    1.87644   1.90660   1.91692   2.00866   2.04782
 Alpha virt. eigenvalues --    2.07681   2.10304   2.16209   2.19469   2.25785
 Alpha virt. eigenvalues --    2.32429   2.38833   2.42412   2.44202   2.44913
 Alpha virt. eigenvalues --    2.49046   2.55577   2.63619   2.65755   2.70721
 Alpha virt. eigenvalues --    2.74766   2.77578   2.83555   2.93228   2.96072
 Alpha virt. eigenvalues --    3.01977   3.13508   3.23670   3.26827   3.31004
 Alpha virt. eigenvalues --    4.13982   4.21854   4.30372   4.65266   4.77369
 Alpha virt. eigenvalues --    4.97052
          Condensed to atoms (all electrons):
               1          2          3          4          5          6
     1  O    8.407919   0.179460  -0.042604   0.002008  -0.003139   0.000044
     2  C    0.179460   4.908380   0.344279  -0.041605  -0.060106   0.003753
     3  C   -0.042604   0.344279   4.918566   0.197088   0.345526  -0.067246
     4  O    0.002008  -0.041605   0.197088   8.393630  -0.056156   0.001183
     5  C   -0.003139  -0.060106   0.345526  -0.056156   4.865304   0.205401
     6  O    0.000044   0.003753  -0.067246   0.001183   0.205401   8.383784
     7  H    0.254307  -0.028005  -0.004099   0.000032  -0.000674  -0.000037
     8  H   -0.037617   0.391793  -0.046726   0.004567  -0.011035  -0.000035
     9  H   -0.036283   0.397205  -0.050246   0.002399   0.005516  -0.000075
    10  H    0.002863  -0.064959   0.389180  -0.037921  -0.057672   0.000941
    11  H    0.000052  -0.004662  -0.027386   0.260749   0.006698  -0.000303
    12  H    0.000339  -0.002906  -0.052450   0.002242   0.390584  -0.031876
    13  H    0.008312  -0.001065  -0.055589   0.003063   0.398756  -0.030764
    14  H    0.000020  -0.000158  -0.000802   0.000007  -0.027083   0.255186
               7          8          9         10         11         12
     1  O    0.254307  -0.037617  -0.036283   0.002863   0.000052   0.000339
     2  C   -0.028005   0.391793   0.397205  -0.064959  -0.004662  -0.002906
     3  C   -0.004099  -0.046726  -0.050246   0.389180  -0.027386  -0.052450
     4  O    0.000032   0.004567   0.002399  -0.037921   0.260749   0.002242
     5  C   -0.000674  -0.011035   0.005516  -0.057672   0.006698   0.390584
     6  O   -0.000037  -0.000035  -0.000075   0.000941  -0.000303  -0.031876
     7  H    0.336210   0.005733  -0.003169   0.006134   0.000004   0.000053
     8  H    0.005733   0.542509  -0.031415   0.006441  -0.000305   0.005486
     9  H   -0.003169  -0.031415   0.573817  -0.005289   0.004228  -0.000302
    10  H    0.006134   0.006441  -0.005289   0.654001  -0.002622   0.005792
    11  H    0.000004  -0.000305   0.004228  -0.002622   0.323560  -0.000357
    12  H    0.000053   0.005486  -0.000302   0.005792  -0.000357   0.524871
    13  H    0.000168   0.000164   0.000152   0.000614  -0.000163  -0.020601
    14  H   -0.000010   0.000005   0.000005   0.002638  -0.000005   0.004912
              13         14
     1  O    0.008312   0.000020
     2  C   -0.001065  -0.000158
     3  C   -0.055589  -0.000802
     4  O    0.003063   0.000007
     5  C    0.398756  -0.027083
     6  O   -0.030764   0.255186
     7  H    0.000168  -0.000010
     8  H    0.000164   0.000005
     9  H    0.000152   0.000005
    10  H    0.000614   0.002638
    11  H   -0.000163  -0.000005
    12  H   -0.020601   0.004912
    13  H    0.539141  -0.009281
    14  H   -0.009281   0.345753
 Mulliken charges:
               1
     1  O   -0.735680
     2  C   -0.021405
     3  C    0.152510
     4  O   -0.731287
     5  C   -0.001919
     6  O   -0.719955
     7  H    0.433353
     8  H    0.170435
     9  H    0.143456
    10  H    0.099859
    11  H    0.440512
    12  H    0.174214
    13  H    0.167093
    14  H    0.428813
 Sum of Mulliken charges =   0.00000
 Mulliken charges with hydrogens summed into heavy atoms:
               1
     1  O   -0.302327
     2  C    0.292487
     3  C    0.252368
     4  O   -0.290774
     5  C    0.339388
     6  O   -0.291142
 Electronic spatial extent (au):  <R**2>=            651.8675
 Charge=              0.0000 electrons
 Dipole moment (field-independent basis, Debye):
    X=             -2.0880    Y=              0.0028    Z=             -2.7242  Tot=              3.4324
 Quadrupole moment (field-independent basis, Debye-Ang):
   XX=            -45.8871   YY=            -32.0968   ZZ=            -32.4320
   XY=             -5.8696   XZ=              0.8976   YZ=              2.1393
 Traceless Quadrupole moment (field-independent basis, Debye-Ang):
   XX=             -9.0818   YY=              4.7085   ZZ=              4.3733
   XY=             -5.8696   XZ=              0.8976   YZ=              2.1393
 Octapole moment (field-independent basis, Debye-Ang**2):
  XXX=             -3.1184  YYY=              9.9474  ZZZ=             -4.4043  XYY=              1.4502
  XXY=              0.5418  XXZ=            -12.8625  XZZ=             -0.7294  YZZ=             -4.2689
  YYZ=            -10.5126  XYZ=              0.2782
 Hexadecapole moment (field-independent basis, Debye-Ang**3):
 XXXX=           -523.5212 YYYY=           -175.8275 ZZZZ=            -66.9796 XXXY=            -10.3514
 XXXZ=              2.4013 YYYX=             -8.8982 YYYZ=             -0.2805 ZZZX=              2.2798
 ZZZY=              6.8312 XXYY=           -114.6842 XXZZ=            -73.5614 YYZZ=            -44.7699
 XXYZ=             18.1276 YYXZ=             -1.6792 ZZXY=              1.1157
 N-N= 2.647979616861D+02 E-N=-1.337695161071D+03  KE= 3.420550292517D+02
 No NMR shielding tensors so no spin-rotation constants.
 Leave Link  601 at Wed Sep 20 14:28:39 2023, MaxMem=    33554432 cpu:         0.1
 (Enter /mnt/storage/apps/eb/software/gaussian/09/l701.exe)
 Compute integral first derivatives.
 ... and contract with generalized density number  0.
 Leave Link  701 at Wed Sep 20 14:28:39 2023, MaxMem=    33554432 cpu:         0.1
 (Enter /mnt/storage/apps/eb/software/gaussian/09/l702.exe)
 L702 exits ... SP integral derivatives will be done elsewhere.
 Leave Link  702 at Wed Sep 20 14:28:40 2023, MaxMem=    33554432 cpu:         0.0
 (Enter /mnt/storage/apps/eb/software/gaussian/09/l703.exe)
 Compute integral first derivatives, UseDBF=F ICtDFT=           0.
 Integral derivatives from FoFJK, PRISM(SPDF).
 Calling FoFJK, ICntrl=      2127 FMM=F ISym2X=0 I1Cent= 0 IOpClX= 0 NMat=1 NMatS=1 NMatT=0.
 FoFJK:  IHMeth= 1 ICntrl=    2127 DoSepK=F KAlg= 0 I1Cent=   0 FoldK=F
 IRaf=         0 NMat=   1 IRICut=       1 DoRegI=T DoRafI=F ISym2E= 0.
 FoFCou: FMM=F IPFlag=           0 FMFlag=      100000 FMFlg1=         800
         NFxFlg=           0 DoJE=F BraDBF=F KetDBF=F FulRan=T
         wScrn=  0.000000 ICntrl=    2127 IOpCl=  0 I1Cent=           0 NGrid=           0
         NMat0=    1 NMatS0=      1 NMatT0=    0 NMatD0=    1 NMtDS0=    0 NMtDT0=    0
 Symmetry not used in FoFCou.
 Leave Link  703 at Wed Sep 20 14:28:42 2023, MaxMem=    33554432 cpu:         1.5
 (Enter /mnt/storage/apps/eb/software/gaussian/09/l716.exe)
 Dipole        =-8.21494048D-01 1.11712300D-03-1.07177654D+00
 ***** Axes restored to original set *****
 -------------------------------------------------------------------
 Center     Atomic                   Forces (Hartrees/Bohr)
 Number     Number              X              Y              Z
 -------------------------------------------------------------------
      1        8          -0.007515594   -0.027380038   -0.029992244
      2        6           0.005822479    0.008314450    0.034017319
      3        6          -0.020859835   -0.022659891   -0.017901462
      4        8          -0.010520388    0.034850430   -0.007360296
      5        6          -0.006878052    0.014122453   -0.006280159
      6        8           0.011623219   -0.054605091   -0.023907754
      7        1           0.002427342    0.019431772    0.032725075
      8        1          -0.012139966   -0.005015786   -0.026605100
      9        1           0.001406447    0.006238043   -0.000392423
     10        1           0.003255272    0.007989703    0.008012827
     11        1           0.016712243   -0.022231987    0.010271861
     12        1           0.004911246   -0.014303173   -0.012167383
     13        1           0.008436950    0.011441597    0.008427760
     14        1           0.003318636    0.043807519    0.031151978
 -------------------------------------------------------------------
 Cartesian Forces:  Max     0.054605091 RMS     0.019840384
 Leave Link  716 at Wed Sep 20 14:28:43 2023, MaxMem=    33554432 cpu:         0.0
 (Enter /mnt/storage/apps/eb/software/gaussian/09/l103.exe)

 GradGradGradGradGradGradGradGradGradGradGradGradGradGradGradGradGradGrad
 Berny optimization.
 FormGI is forming the generalized inverse of G from B-inverse, IUseBI=4.
 Internal  Forces:  Max     0.053578604 RMS     0.012372420
 Search for a local minimum.
 Step number   1 out of a maximum of  100
 All quantities printed in internal units (Hartrees-Bohrs-Radians)
 RMS Force = .12372D-01 SwitMx=.10000D-02 MixMth= 1
 Mixed Optimization -- RFO/linear search
 Second derivative matrix not updated -- first step.
 ITU=  0
     Eigenvalues ---    0.00577   0.00585   0.01696   0.01806   0.02052
     Eigenvalues ---    0.04763   0.04952   0.05209   0.05910   0.06132
     Eigenvalues ---    0.06453   0.07073   0.10688   0.11729   0.13437
     Eigenvalues ---    0.13984   0.16000   0.16000   0.16000   0.16478
     Eigenvalues ---    0.20238   0.22132   0.22195   0.30637   0.30922
     Eigenvalues ---    0.30983   0.31981   0.32941   0.33736   0.35439
     Eigenvalues ---    0.45679   0.47087   0.47273   0.50309   0.50455
     Eigenvalues ---    0.52520
 RFO step:  Lambda=-2.79264506D-02 EMin= 5.76760645D-03
 Linear search not attempted -- first point.
 Iteration  1 RMS(Cart)=  0.08449548 RMS(Int)=  0.00264776
 Iteration  2 RMS(Cart)=  0.00304583 RMS(Int)=  0.00143776
 Iteration  3 RMS(Cart)=  0.00000442 RMS(Int)=  0.00143775
 Iteration  4 RMS(Cart)=  0.00000001 RMS(Int)=  0.00143775
 ITry= 1 IFail=0 DXMaxC= 3.06D-01 DCOld= 1.00D+10 DXMaxT= 3.00D-01 DXLimC= 3.00D+00 Rises=F
 Variable       Old X    -DE/DX   Delta X   Delta X   Delta X     New X
                                 (Linear)    (Quad)   (Total)
    R1        2.62924   0.00922   0.00000   0.01848   0.01848   2.64772
    R2        1.86255  -0.03791   0.00000  -0.07139  -0.07139   1.79115
    R3        2.86044   0.01310   0.00000   0.03877   0.03877   2.89922
    R4        2.13411  -0.02824   0.00000  -0.08449  -0.08449   2.04962
    R5        2.04969   0.00256   0.00000   0.00669   0.00669   2.05638
    R6        2.59409   0.01367   0.00000   0.02568   0.02568   2.61977
    R7        2.86162   0.01311   0.00000   0.03890   0.03890   2.90051
    R8        2.10879  -0.01088   0.00000  -0.03129  -0.03129   2.07750
    R9        1.84105  -0.02905   0.00000  -0.05252  -0.05252   1.78853
   R10        2.64495   0.00806   0.00000   0.01663   0.01663   2.66158
   R11        2.09154  -0.01671   0.00000  -0.04676  -0.04676   2.04479
   R12        2.07779  -0.01295   0.00000  -0.03545  -0.03545   2.04233
   R13        1.89421  -0.05358   0.00000  -0.10702  -0.10702   1.78720
    A1        1.94553  -0.00699   0.00000  -0.03718  -0.03718   1.90835
    A2        1.94967   0.00487   0.00000   0.02578   0.02507   1.97474
    A3        1.84436  -0.00228   0.00000   0.00720   0.00551   1.84987
    A4        1.91893   0.00134   0.00000   0.00655   0.00682   1.92575
    A5        1.84846   0.00731   0.00000   0.05225   0.05159   1.90005
    A6        1.97740  -0.00707   0.00000  -0.04712  -0.04672   1.93068
    A7        1.91892  -0.00386   0.00000  -0.04111  -0.04051   1.87841
    A8        1.96583  -0.00519   0.00000  -0.03034  -0.02996   1.93586
    A9        1.91814   0.00925   0.00000   0.04281   0.04236   1.96050
   A10        1.86625   0.00043   0.00000   0.01852   0.01773   1.88398
   A11        1.89805  -0.00368   0.00000  -0.02209  -0.02168   1.87638
   A12        1.94905   0.00094   0.00000  -0.01239  -0.01229   1.93676
   A13        1.86375  -0.00126   0.00000   0.00712   0.00613   1.86987
   A14        1.97971  -0.01062   0.00000  -0.05649  -0.05649   1.92322
   A15        1.85536   0.02891   0.00000   0.12967   0.12707   1.98244
   A16        1.86178   0.00197   0.00000   0.03257   0.03347   1.89525
   A17        1.87859  -0.00056   0.00000   0.02625   0.02533   1.90392
   A18        1.92343  -0.01292   0.00000  -0.06854  -0.07283   1.85060
   A19        1.96407  -0.00955   0.00000  -0.03388  -0.03939   1.92469
   A20        1.97316  -0.00445   0.00000  -0.06570  -0.06814   1.90502
   A21        1.85797   0.01032   0.00000   0.05493   0.05493   1.91290
    D1       -1.05334   0.00377   0.00000   0.01660   0.01663  -1.03671
    D2       -3.05553  -0.00599   0.00000  -0.06202  -0.06209  -3.11762
    D3        1.15762  -0.00083   0.00000  -0.02086  -0.02082   1.13681
    D4        3.14147  -0.00173   0.00000  -0.03377  -0.03422   3.10725
    D5       -1.02251  -0.00339   0.00000  -0.05223  -0.05307  -1.07558
    D6        0.99412   0.00008   0.00000  -0.01185  -0.01210   0.98202
    D7       -1.14206   0.00214   0.00000   0.01722   0.01789  -1.12417
    D8        0.97715   0.00048   0.00000  -0.00124  -0.00097   0.97618
    D9        2.99378   0.00394   0.00000   0.03914   0.04001   3.03379
   D10        0.96269  -0.00189   0.00000  -0.02625  -0.02628   0.93642
   D11        3.08190  -0.00355   0.00000  -0.04471  -0.04513   3.03677
   D12       -1.18465  -0.00008   0.00000  -0.00434  -0.00416  -1.18881
   D13       -0.91484   0.00195   0.00000  -0.00757  -0.00745  -0.92229
   D14       -3.04543  -0.00378   0.00000  -0.02627  -0.02649  -3.07192
   D15        1.18552  -0.00048   0.00000  -0.01387  -0.01377   1.17174
   D16        3.07657   0.00327   0.00000   0.02353   0.02386   3.10042
   D17       -1.15419   0.00354   0.00000   0.02408   0.02559  -1.12860
   D18        0.96832  -0.00094   0.00000  -0.02115  -0.02249   0.94583
   D19       -1.04733   0.00038   0.00000  -0.00109  -0.00100  -1.04833
   D20        1.00510   0.00065   0.00000  -0.00054   0.00073   1.00583
   D21        3.12760  -0.00383   0.00000  -0.04577  -0.04735   3.08026
   D22        1.05835  -0.00124   0.00000  -0.02395  -0.02388   1.03447
   D23        3.11078  -0.00098   0.00000  -0.02340  -0.02214   3.08864
   D24       -1.04990  -0.00546   0.00000  -0.06863  -0.07022  -1.12013
   D25       -1.60044   0.00013   0.00000  -0.00046  -0.00150  -1.60194
   D26        2.67171  -0.01151   0.00000  -0.07532  -0.07034   2.60137
   D27        0.45184   0.01217   0.00000   0.09338   0.08943   0.54127
         Item               Value     Threshold  Converged?
 Maximum Force            0.053579     0.000015     NO 
 RMS     Force            0.012372     0.000010     NO 
 Maximum Displacement     0.305941     0.000060     NO 
 RMS     Displacement     0.083209     0.000040     NO 
 Predicted change in Energy=-1.562354D-02
 Lowest energy point so far.  Saving SCF results.
 GradGradGradGradGradGradGradGradGradGradGradGradGradGradGradGradGradGrad

 Leave Link  103 at Wed Sep 20 14:28:43 2023, MaxMem=    33554432 cpu:         0.0
 (Enter /mnt/storage/apps/eb/software/gaussian/09/l202.exe)
                          Input orientation:                          
 ---------------------------------------------------------------------
 Center     Atomic      Atomic             Coordinates (Angstroms)
 Number     Number       Type             X           Y           Z
 ---------------------------------------------------------------------
      1          8           0       -1.786892   -1.095501    0.438861
      2          6           0       -1.324160    0.225408    0.374143
      3          6           0        0.032390    0.355290   -0.330607
      4          8           0        0.424948    1.682627   -0.407809
      5          6           0        1.143707   -0.413321    0.397461
      6          8           0        2.390105   -0.355431   -0.255889
      7          1           0       -1.876324   -1.440177   -0.439546
      8          1           0       -1.218498    0.555660    1.401836
      9          1           0       -2.066118    0.863142   -0.102243
     10          1           0       -0.063154   -0.085651   -1.333128
     11          1           0       -0.262097    2.204391   -0.797035
     12          1           0        1.294724    0.037095    1.369655
     13          1           0        0.836069   -1.441249    0.526896
     14          1           0        2.475299   -1.092281   -0.842596
 ---------------------------------------------------------------------
                    Distance matrix (angstroms):
                    1          2          3          4          5
     1  O    0.000000
     2  C    1.401111   0.000000
     3  C    2.450849   1.534200   0.000000
     4  O    3.650628   2.407138   1.386321   0.000000
     5  C    3.009235   2.549291   1.534884   2.357557   0.000000
     6  O    4.298568   3.811834   2.463641   2.835244   1.408448
     7  H    0.947838   1.934205   2.622739   3.879274   3.297818
     8  H    1.994174   1.084612   2.146213   2.691800   2.743667
     9  H    2.051108   1.088187   2.171129   2.640139   3.490278
    10  H    2.670395   2.145150   1.099366   2.054573   2.135139
    11  H    3.839495   2.532984   1.929625   0.946449   3.202424
    12  H    3.412551   2.808034   2.141407   2.573648   1.082054
    13  H    2.647115   2.732704   2.146803   3.286533   1.080755
    14  H    4.450665   4.201505   2.885376   3.477513   1.942129
                    6          7          8          9         10
     6  O    0.000000
     7  H    4.405998   0.000000
     8  H    4.074330   2.794063   0.000000
     9  H    4.622386   2.335610   1.753642   0.000000
    10  H    2.692900   2.433272   3.037455   2.535182   0.000000
    11  H    3.725548   4.002050   2.909991   2.352907   2.360353
    12  H    1.999083   3.938411   2.566365   3.760863   3.027199
    13  H    2.051044   2.879424   2.995733   3.758820   2.471019
    14  H    0.945743   4.384074   4.625725   4.999627   2.774468
                   11         12         13         14
    11  H    0.000000
    12  H    3.437355   0.000000
    13  H    4.031061   1.762415   0.000000
    14  H    4.285261   2.750146   2.164339   0.000000
 Stoichiometry    C3H8O3
 Framework group  C1[X(C3H8O3)]
 Deg. of freedom    36
 Full point group                 C1      NOp   1
 RotChk:  IX=0 Diff= 7.25D-02
 Largest Abelian subgroup         C1      NOp   1
 Largest concise Abelian subgroup C1      NOp   1
                         Standard orientation:                         
 ---------------------------------------------------------------------
 Center     Atomic      Atomic             Coordinates (Angstroms)
 Number     Number       Type             X           Y           Z
 ---------------------------------------------------------------------
      1          8           0       -2.068833   -0.935904   -0.084505
      2          6           0       -1.462961    0.289387    0.223215
      3          6           0       -0.012905    0.385433   -0.268602
      4          8           0        0.526422    1.629384    0.020535
      5          6           0        0.893070   -0.672043    0.377017
      6          8           0        2.219648   -0.641782   -0.095215
      7          1           0       -2.066967   -1.059781   -1.024211
      8          1           0       -1.471941    0.363735    1.305239
      9          1           0       -2.055895    1.113439   -0.168600
     10          1           0       -0.009447    0.197260   -1.351738
     11          1           0       -0.037475    2.314484   -0.308741
     12          1           0        0.949571   -0.475587    1.439586
     13          1           0        0.461781   -1.650465    0.219819
     14          1           0        2.309258   -1.233337   -0.827652
 ---------------------------------------------------------------------
 Rotational constants (GHZ):      5.3456841      2.3468538      1.7554539
 Leave Link  202 at Wed Sep 20 14:28:43 2023, MaxMem=    33554432 cpu:         0.0
 (Enter /mnt/storage/apps/eb/software/gaussian/09/l301.exe)
 Standard basis: 6-31G(d) (6D, 7F)
 Ernie: Thresh=  0.10000D-02 Tol=  0.10000D-05 Strict=F.
 There are   106 symmetry adapted cartesian basis functions of A   symmetry.
 There are   106 symmetry adapted basis functions of A   symmetry.
   106 basis functions,   200 primitive gaussians,   106 cartesian basis functions
    25 alpha electrons       25 beta electrons
       nuclear repulsion energy       261.5203656513 Hartrees.
 IExCor=    0 DFT=F Ex=HF Corr=None ExCW=0 ScaHFX=  1.000000
 ScaDFX=  1.000000  1.000000  1.000000  1.000000 ScalE2=  1.000000  1.000000
 IRadAn=      0 IRanWt=     -1 IRanGd=            0 ICorTp=0 IEmpDi=  4
 NAtoms=   14 NActive=   14 NUniq=   14 SFac= 1.00D+00 NAtFMM=   60 NAOKFM=F Big=F
 Integral buffers will be    131072 words long.
 Raffenetti 1 integral format.
 Two-electron integral symmetry is turned on.
 Leave Link  301 at Wed Sep 20 14:28:43 2023, MaxMem=    33554432 cpu:         0.0
 (Enter /mnt/storage/apps/eb/software/gaussian/09/l302.exe)
 NPDir=0 NMtPBC=     1 NCelOv=     1 NCel=       1 NClECP=     1 NCelD=      1
         NCelK=      1 NCelE2=     1 NClLst=     1 CellRange=     0.0.
 One-electron integrals computed using PRISM.
 NBasis=   106 RedAO= T EigKep=  3.23D-03  NBF=   106
 NBsUse=   106 1.00D-06 EigRej= -1.00D+00 NBFU=   106
 Leave Link  302 at Wed Sep 20 14:28:43 2023, MaxMem=    33554432 cpu:         0.1
 (Enter /mnt/storage/apps/eb/software/gaussian/09/l303.exe)
 DipDrv:  MaxL=1.
 Leave Link  303 at Wed Sep 20 14:28:43 2023, MaxMem=    33554432 cpu:         0.0
 (Enter /mnt/storage/apps/eb/software/gaussian/09/l401.exe)
 Initial guess from the checkpoint file:  "/scratch/nca121/18446470/Gau-42596.chk"
 B after Tr=     0.000000    0.000000    0.000000
         Rot=    0.999731   -0.001473   -0.002035   -0.023037 Ang=  -2.66 deg.
 Guess basis will be translated and rotated to current coordinates.
 JPrj=2 DoOrth=T DoCkMO=T.
 Generating alternative initial guess.
 ExpMin= 1.61D-01 ExpMax= 5.48D+03 ExpMxC= 8.25D+02 IAcc=1 IRadAn=         1 AccDes= 0.00D+00
 Harris functional with IExCor=  205 and IRadAn=       1 diagonalized for initial guess.
 HarFok:  IExCor=  205 AccDes= 0.00D+00 IRadAn=         1 IDoV= 1 UseB2=F ITyADJ=14
 ICtDFT=  3500011 ScaDFX=  1.000000  1.000000  1.000000  1.000000
 FoFCou: FMM=F IPFlag=           0 FMFlag=      100000 FMFlg1=           0
         NFxFlg=           0 DoJE=T BraDBF=F KetDBF=T FulRan=T
         wScrn=  0.000000 ICntrl=     500 IOpCl=  0 I1Cent=   200000004 NGrid=           0
         NMat0=    1 NMatS0=      1 NMatT0=    0 NMatD0=    1 NMtDS0=    0 NMtDT0=    0
 Petite list used in FoFCou.
 Harris En= -343.195361286983    
 Leave Link  401 at Wed Sep 20 14:28:43 2023, MaxMem=    33554432 cpu:         0.3
 (Enter /mnt/storage/apps/eb/software/gaussian/09/l508.exe)
 Direct SCF.
 Tight linear equation convergence will be used.
 RHF wavefunction.
 Quadratic Convergence SCF Method.
 Line search only if initial step raises energy.
 Integral symmetry usage will be decided dynamically.
 ReadGW:  IGet=1 IStart=         402 Next=         402 LGW=           0.
 Keep R1 ints in memory in canonical form, NReq=17056380.
 FoFCou: FMM=F IPFlag=           0 FMFlag=           0 FMFlg1=           0
         NFxFlg=           0 DoJE=F BraDBF=F KetDBF=F FulRan=T
         wScrn=  0.000000 ICntrl=     600 IOpCl=  0 I1Cent=           0 NGrid=           0
         NMat0=    1 NMatS0=   5671 NMatT0=    0 NMatD0=    1 NMtDS0=    0 NMtDT0=    0
 Symmetry not used in FoFCou.
 Iteration   1 EE= -342.793100730299                                    Grad=1.113D-01 Max rot=    0.5116 deg.
 Gradient too large for Newton-Raphson -- use scaled steepest descent instead.
 Alpha Gap=     1.928 HL deriv= 2.59D-04
     ILin= 1 X=0.000D+00 Y=-3.427931007303D+02 DE= 0.00D+00 F= -1.03D-02
     ILin= 2 X=3.000D-01 Y=-3.427958216774D+02 DE=-2.72D-03 F= -7.87D-03
     ILin= 3 X=6.000D-01 Y=-3.427978209405D+02 DE=-4.72D-03 F= -5.46D-03
     ILin= 4 X=1.200D+00 Y=-3.427996551721D+02 DE=-6.55D-03 F= -6.53D-04
     Reject lnstep minimum 1.493D+00 FVal=-3.427998911597D+02 Lims=  6.00D-01  1.20D+00
     ILin= 5 X=2.400D+00 Y=-3.427946734563D+02 DE=-1.57D-03 F=  8.95D-03
     An  expanding polynomial of degree  5 produced  1.2815
     Minimum is close to point  4 DX=  8.15D-02 DF= -2.66D-05 DXR=  6.36D-02 DFR=  4.06D-03 which will be used.
 Iteration   2 EE= -342.799655172095     Delta-E=       -0.006554441796 Grad=5.560D-02 Max rot=    0.2607 deg.
 Gradient too large for Newton-Raphson -- use scaled steepest descent instead.
 Alpha Gap=     1.927 HL deriv= 8.61D-04
     ILin= 1 X=0.000D+00 Y=-3.427996551721D+02 DE= 0.00D+00 F= -2.54D-03
     ILin= 2 X=6.000D-01 Y=-3.428007350690D+02 DE=-1.08D-03 F= -1.06D-03
     ILin= 3 X=1.200D+00 Y=-3.428009252569D+02 DE=-1.27D-03 F=  4.25D-04
     Accept linear search using points  2 and  3.
     An  expanding polynomial of degree  3 produced  0.9551
 Iteration   3 EE= -342.800955110000     Delta-E=       -0.001299937905 Grad=3.372D-02 Max rot=    0.2111 deg.
 Gradient too large for Newton-Raphson -- use scaled steepest descent instead.
 Alpha Gap=     1.927 HL deriv= 7.43D-05
     ILin= 1 X=0.000D+00 Y=-3.428009551100D+02 DE= 0.00D+00 F= -1.01D-03
     ILin= 2 X=1.100D+00 Y=-3.428014417852D+02 DE=-4.87D-04 F=  1.23D-04
     Accept linear search using points  1 and  2.
     An  expanding polynomial of degree  2 produced  1.0019
     Minimum is close to point  2 DX= -9.81D-02 DF= -5.46D-06 DXR=  9.79D-02 DFR=  1.12D-02 which will be used.
 Iteration   4 EE= -342.801441785246     Delta-E=       -0.000486675247 Grad=3.050D-02 Max rot=    0.1201 deg.
 Gradient too large for Newton-Raphson -- use scaled steepest descent instead.
 Alpha Gap=     1.927 HL deriv= 5.78D-04
     ILin= 1 X=0.000D+00 Y=-3.428014417852D+02 DE= 0.00D+00 F= -7.75D-04
     ILin= 2 X=1.000D+00 Y=-3.428016539876D+02 DE=-2.12D-04 F=  3.50D-04
     Accept linear search using points  1 and  2.
     An  expanding polynomial of degree  2 produced  0.6887
 Iteration   5 EE= -342.801708499301     Delta-E=       -0.000266714055 Grad=1.571D-02 Max rot=    0.0949 deg.
 Gradient too large for Newton-Raphson -- use scaled steepest descent instead.
 Alpha Gap=     1.927 HL deriv= 1.36D-04
     ILin= 1 X=0.000D+00 Y=-3.428017084993D+02 DE= 0.00D+00 F= -2.22D-04
     ILin= 2 X=8.000D-01 Y=-3.428018258295D+02 DE=-1.17D-04 F= -7.12D-05
     Reject lnstep minimum 1.766D+00 FVal=-3.428018936421D+02 Lims=  0.00D+00  8.00D-01
     ILin= 3 X=1.700D+00 Y=-3.428018134825D+02 DE=-1.05D-04 F=  9.86D-05
     An  expanding polynomial of degree  3 produced  1.1773
 Iteration   6 EE= -342.801839258575     Delta-E=       -0.000130759274 Grad=1.565D-02 Max rot=    0.0729 deg.
 Gradient too large for Newton-Raphson -- use scaled steepest descent instead.
 Alpha Gap=     1.927 HL deriv= 2.60D-04
     ILin= 1 X=0.000D+00 Y=-3.428018392586D+02 DE= 0.00D+00 F= -2.07D-04
     ILin= 2 X=9.000D-01 Y=-3.428019021066D+02 DE=-6.28D-05 F=  6.69D-05
     Accept linear search using points  1 and  2.
     An  expanding polynomial of degree  2 produced  0.6526
 Iteration   7 EE= -342.801909363211     Delta-E=       -0.000070104636 Grad=8.304D-03 Max rot=    0.0433 deg.
 QCNR:  CnvC1=6.36D-09 CnvC2=6.36D-08
 LinEq1:  Iter=  0 NonCon=     1 RMS=1.26D-04 Max=1.31D-03 NDo=     1
 AX will form     1 AO Fock derivatives at one time.
 LinEq1:  Iter=  1 NonCon=     1 RMS=1.50D-05 Max=1.10D-04 NDo=     1
 LinEq1:  Iter=  2 NonCon=     1 RMS=5.64D-06 Max=3.96D-05 NDo=     1
 LinEq1:  Iter=  3 NonCon=     1 RMS=1.47D-06 Max=1.27D-05 NDo=     1
 LinEq1:  Iter=  4 NonCon=     1 RMS=5.61D-07 Max=4.13D-06 NDo=     1
 LinEq1:  Iter=  5 NonCon=     1 RMS=1.34D-07 Max=8.85D-07 NDo=     1
 LinEq1:  Iter=  6 NonCon=     1 RMS=2.85D-08 Max=1.91D-07 NDo=     1
 LinEq1:  Iter=  7 NonCon=     1 RMS=8.32D-09 Max=5.97D-08 NDo=     1
 LinEq1:  Iter=  8 NonCon=     0 RMS=2.65D-09 Max=2.25D-08 NDo=     1
 Linear equations converged to 6.364D-09 6.364D-08 after     8 iterations.
 Angle between quadratic step and gradient=  29.66 degrees.
     ILin= 1 X=0.000D+00 Y=-3.428019093632D+02 DE= 0.00D+00 F= -1.86D-04
     ILin= 2 X=1.000D+00 Y=-3.428020022399D+02 DE=-9.29D-05 F= -8.37D-08
     Reject lnstep minimum 1.000D+00 FVal=-3.428020022399D+02 Lims=  0.00D+00  1.00D+00
     ILin= 3 X=2.000D+00 Y=-3.428019095864D+02 DE=-2.23D-07 F=  1.85D-04
     An  expanding polynomial of degree  3 produced  1.0006
     Minimum is close to point  2 DX=  6.02D-04 DF= -3.36D-11 DXR=  6.01D-04 DFR=  3.62D-07 which will be used.
 Iteration   8 EE= -342.802002239903     Delta-E=       -0.000092876692 Grad=2.151D-05 Max rot=    0.0001 deg.
 QCNR:  CnvC1=2.15D-10 CnvC2=2.15D-09
 LinEq1:  Iter=  0 NonCon=     1 RMS=2.32D-07 Max=1.96D-06 NDo=     1
 LinEq1:  Iter=  1 NonCon=     1 RMS=7.78D-08 Max=7.06D-07 NDo=     1
 LinEq1:  Iter=  2 NonCon=     1 RMS=1.63D-08 Max=1.17D-07 NDo=     1
 LinEq1:  Iter=  3 NonCon=     1 RMS=5.65D-09 Max=4.18D-08 NDo=     1
 LinEq1:  Iter=  4 NonCon=     1 RMS=1.09D-09 Max=7.16D-09 NDo=     1
 LinEq1:  Iter=  5 NonCon=     1 RMS=3.67D-10 Max=2.71D-09 NDo=     1
 LinEq1:  Iter=  6 NonCon=     0 RMS=1.23D-10 Max=1.00D-09 NDo=     1
 Linear equations converged to 2.151D-10 2.151D-09 after     6 iterations.
 Angle between quadratic step and gradient=  38.59 degrees.
     ILin= 1 X=0.000D+00 Y=-3.428020022399D+02 DE= 0.00D+00 F= -4.33D-10
     ILin= 2 X=1.000D+00 Y=-3.428020022401D+02 DE=-2.15D-10
 Iteration   9 EE= -342.802002240118     Delta-E=       -0.000000000215 Grad=1.449D-08 Max rot=    0.0000 deg.
 Rotation gradient small -- convergence achieved.
 SCF Done:  E(RHF) =  -342.802002240     a.u. after    9 cycles
            Convg  =    0.1449D-07                    33 Fock formations.
              S**2 =  0.0000                  -V/T =  2.0016
 Leave Link  508 at Wed Sep 20 14:28:45 2023, MaxMem=    33554432 cpu:         1.5
 (Enter /mnt/storage/apps/eb/software/gaussian/09/l701.exe)
 Compute integral first derivatives.
 ... and contract with generalized density number  0.
 Leave Link  701 at Wed Sep 20 14:28:45 2023, MaxMem=    33554432 cpu:         0.1
 (Enter /mnt/storage/apps/eb/software/gaussian/09/l702.exe)
 L702 exits ... SP integral derivatives will be done elsewhere.
 Leave Link  702 at Wed Sep 20 14:28:45 2023, MaxMem=    33554432 cpu:         0.0
 (Enter /mnt/storage/apps/eb/software/gaussian/09/l703.exe)
 Compute integral first derivatives, UseDBF=F ICtDFT=           0.
 Integral derivatives from FoFJK, PRISM(SPDF).
 Calling FoFJK, ICntrl=      2127 FMM=F ISym2X=0 I1Cent= 0 IOpClX= 0 NMat=1 NMatS=1 NMatT=0.
 FoFJK:  IHMeth= 1 ICntrl=    2127 DoSepK=F KAlg= 0 I1Cent=   0 FoldK=F
 IRaf=         0 NMat=   1 IRICut=       1 DoRegI=T DoRafI=F ISym2E= 0.
 FoFCou: FMM=F IPFlag=           0 FMFlag=      100000 FMFlg1=         800
         NFxFlg=           0 DoJE=F BraDBF=F KetDBF=F FulRan=T
         wScrn=  0.000000 ICntrl=    2127 IOpCl=  0 I1Cent=           0 NGrid=           0
         NMat0=    1 NMatS0=      1 NMatT0=    0 NMatD0=    1 NMtDS0=    0 NMtDT0=    0
 Symmetry not used in FoFCou.
 Leave Link  703 at Wed Sep 20 14:28:47 2023, MaxMem=    33554432 cpu:         1.6
 (Enter /mnt/storage/apps/eb/software/gaussian/09/l716.exe)
 Dipole        =-8.21980921D-01-3.92729077D-02-1.05818376D+00
 ***** Axes restored to original set *****
 -------------------------------------------------------------------
 Center     Atomic                   Forces (Hartrees/Bohr)
 Number     Number              X              Y              Z
 -------------------------------------------------------------------
      1        8           0.002299537   -0.000735145   -0.002534439
      2        6           0.005517246   -0.002294643    0.008053839
      3        6           0.002855102   -0.015878111   -0.003980415
      4        8          -0.000030146    0.008121768    0.001745229
      5        6           0.001252058    0.004848569   -0.002009710
      6        8          -0.006501165    0.000129741    0.000239169
      7        1          -0.001698294   -0.000297308    0.000256117
      8        1          -0.001241154    0.000996526   -0.001649063
      9        1           0.001418005    0.001963233   -0.001929447
     10        1           0.000377391    0.003321750    0.001106086
     11        1           0.000186970    0.000921295   -0.001992886
     12        1          -0.001762744   -0.000477630    0.000935689
     13        1          -0.002253232   -0.001619216    0.003062966
     14        1          -0.000419576    0.000999171   -0.001303133
 -------------------------------------------------------------------
 Cartesian Forces:  Max     0.015878111 RMS     0.003743864
 Leave Link  716 at Wed Sep 20 14:28:47 2023, MaxMem=    33554432 cpu:         0.0
 (Enter /mnt/storage/apps/eb/software/gaussian/09/l103.exe)

 GradGradGradGradGradGradGradGradGradGradGradGradGradGradGradGradGradGrad
 Berny optimization.
 Using GEDIIS/GDIIS optimizer.
 FormGI is forming the generalized inverse of G from B-inverse, IUseBI=4.
 Internal  Forces:  Max     0.008716507 RMS     0.002578597
 Search for a local minimum.
 Step number   2 out of a maximum of  100
 All quantities printed in internal units (Hartrees-Bohrs-Radians)
 RMS Force = .25786D-02 SwitMx=.10000D-02 MixMth= 1
 Mixed Optimization -- RFO/linear search
 Update second derivatives using D2CorX and points    1    2
 DE= -1.33D-02 DEPred=-1.56D-02 R= 8.54D-01
 TightC=F SS=  1.41D+00  RLast= 3.47D-01 DXNew= 5.0454D-01 1.0405D+00
 Trust test= 8.54D-01 RLast= 3.47D-01 DXMaxT set to 5.05D-01
 ITU=  1  0
 Use linear search instead of GDIIS.
     Eigenvalues ---    0.00577   0.00586   0.01694   0.01804   0.02049
     Eigenvalues ---    0.04595   0.04881   0.04964   0.05094   0.05984
     Eigenvalues ---    0.06089   0.07447   0.11823   0.12164   0.13933
     Eigenvalues ---    0.14061   0.15965   0.16000   0.16159   0.16768
     Eigenvalues ---    0.20212   0.22060   0.24265   0.29870   0.30958
     Eigenvalues ---    0.31822   0.32288   0.33206   0.34555   0.35424
     Eigenvalues ---    0.44992   0.46948   0.47209   0.49408   0.51383
     Eigenvalues ---    0.53380
 RFO step:  Lambda=-2.14640760D-03 EMin= 5.76546554D-03
 Quartic linear search produced a step of -0.04597.
 Iteration  1 RMS(Cart)=  0.04093192 RMS(Int)=  0.00081655
 Iteration  2 RMS(Cart)=  0.00097057 RMS(Int)=  0.00009741
 Iteration  3 RMS(Cart)=  0.00000059 RMS(Int)=  0.00009741
 ITry= 1 IFail=0 DXMaxC= 1.46D-01 DCOld= 1.00D+10 DXMaxT= 5.05D-01 DXLimC= 3.00D+00 Rises=F
 Variable       Old X    -DE/DX   Delta X   Delta X   Delta X     New X
                                 (Linear)    (Quad)   (Total)
    R1        2.64772   0.00067  -0.00085   0.00319   0.00234   2.65005
    R2        1.79115   0.00003   0.00328  -0.00703  -0.00375   1.78741
    R3        2.89922  -0.00453  -0.00178  -0.00990  -0.01169   2.88753
    R4        2.04962  -0.00138   0.00388  -0.01279  -0.00891   2.04071
    R5        2.05638   0.00103  -0.00031   0.00342   0.00311   2.05949
    R6        2.61977   0.00872  -0.00118   0.01893   0.01775   2.63752
    R7        2.90051  -0.00852  -0.00179  -0.02213  -0.02391   2.87660
    R8        2.07750  -0.00237   0.00144  -0.01018  -0.00874   2.06876
    R9        1.78853   0.00119   0.00241  -0.00306  -0.00064   1.78789
   R10        2.66158  -0.00558  -0.00076  -0.00993  -0.01070   2.65088
   R11        2.04479   0.00040   0.00215  -0.00357  -0.00142   2.04337
   R12        2.04233   0.00255   0.00163   0.00358   0.00521   2.04754
   R13        1.78720  -0.00001   0.00492  -0.01066  -0.00574   1.78145
    A1        1.90835   0.00160   0.00171   0.00550   0.00721   1.91556
    A2        1.97474  -0.00131  -0.00115  -0.00183  -0.00313   1.97161
    A3        1.84987   0.00115  -0.00025   0.02000   0.01968   1.86955
    A4        1.92575   0.00193  -0.00031   0.00648   0.00591   1.93166
    A5        1.90005   0.00130  -0.00237   0.01796   0.01555   1.91560
    A6        1.93068  -0.00274   0.00215  -0.03205  -0.02997   1.90071
    A7        1.87841  -0.00010   0.00186  -0.00828  -0.00641   1.87200
    A8        1.93586   0.00000   0.00138  -0.01252  -0.01126   1.92460
    A9        1.96050  -0.00483  -0.00195  -0.02051  -0.02247   1.93802
   A10        1.88398   0.00191  -0.00082   0.01775   0.01711   1.90109
   A11        1.87638   0.00262   0.00100   0.00390   0.00456   1.88094
   A12        1.93676  -0.00153   0.00056  -0.00969  -0.00915   1.92761
   A13        1.86987   0.00179  -0.00028   0.02168   0.02155   1.89142
   A14        1.92322   0.00121   0.00260   0.00119   0.00378   1.92701
   A15        1.98244  -0.00785  -0.00584  -0.01850  -0.02416   1.95827
   A16        1.89525   0.00120  -0.00154   0.00609   0.00462   1.89987
   A17        1.90392   0.00107  -0.00116   0.00068  -0.00040   1.90352
   A18        1.85060   0.00376   0.00335   0.01732   0.02087   1.87147
   A19        1.92469   0.00366   0.00181   0.01526   0.01725   1.94194
   A20        1.90502  -0.00172   0.00313  -0.02134  -0.01819   1.88683
   A21        1.91290   0.00053  -0.00253   0.00884   0.00632   1.91922
    D1       -1.03671   0.00072  -0.00076  -0.01910  -0.01978  -1.05649
    D2       -3.11762  -0.00088   0.00285  -0.05310  -0.05024   3.11532
    D3        1.13681  -0.00237   0.00096  -0.05768  -0.05682   1.07999
    D4        3.10725  -0.00114   0.00157  -0.04435  -0.04282   3.06443
    D5       -1.07558  -0.00109   0.00244  -0.06213  -0.05952  -1.13510
    D6        0.98202  -0.00049   0.00056  -0.03617  -0.03555   0.94647
    D7       -1.12417   0.00036  -0.00082  -0.00867  -0.00958  -1.13375
    D8        0.97618   0.00041   0.00004  -0.02646  -0.02628   0.94990
    D9        3.03379   0.00101  -0.00184  -0.00050  -0.00231   3.03148
   D10        0.93642  -0.00058   0.00121  -0.02668  -0.02567   0.91074
   D11        3.03677  -0.00053   0.00207  -0.04447  -0.04237   2.99440
   D12       -1.18881   0.00006   0.00019  -0.01851  -0.01841  -1.20721
   D13       -0.92229  -0.00285   0.00034  -0.05579  -0.05552  -0.97782
   D14       -3.07192   0.00141   0.00122  -0.02509  -0.02388  -3.09580
   D15        1.17174  -0.00145   0.00063  -0.04817  -0.04746   1.12428
   D16        3.10042  -0.00002  -0.00110  -0.04414  -0.04526   3.05516
   D17       -1.12860   0.00070  -0.00118  -0.02968  -0.03096  -1.15955
   D18        0.94583  -0.00006   0.00103  -0.05145  -0.05040   0.89543
   D19       -1.04833  -0.00128   0.00005  -0.07013  -0.07010  -1.11843
   D20        1.00583  -0.00056  -0.00003  -0.05567  -0.05579   0.95004
   D21        3.08026  -0.00132   0.00218  -0.07743  -0.07524   3.00502
   D22        1.03447  -0.00073   0.00110  -0.06784  -0.06667   0.96780
   D23        3.08864  -0.00001   0.00102  -0.05339  -0.05236   3.03627
   D24       -1.12013  -0.00077   0.00323  -0.07515  -0.07181  -1.19193
   D25       -1.60194   0.00125   0.00007   0.05073   0.05084  -1.55110
   D26        2.60137   0.00179   0.00323   0.04238   0.04556   2.64693
   D27        0.54127  -0.00023  -0.00411   0.04984   0.04575   0.58702
         Item               Value     Threshold  Converged?
 Maximum Force            0.008717     0.000015     NO 
 RMS     Force            0.002579     0.000010     NO 
 Maximum Displacement     0.146324     0.000060     NO 
 RMS     Displacement     0.040834     0.000040     NO 
 Predicted change in Energy=-1.173041D-03
 Lowest energy point so far.  Saving SCF results.
 GradGradGradGradGradGradGradGradGradGradGradGradGradGradGradGradGradGrad

 Leave Link  103 at Wed Sep 20 14:28:47 2023, MaxMem=    33554432 cpu:         0.0
 (Enter /mnt/storage/apps/eb/software/gaussian/09/l202.exe)
                          Input orientation:                          
 ---------------------------------------------------------------------
 Center     Atomic      Atomic             Coordinates (Angstroms)
 Number     Number       Type             X           Y           Z
 ---------------------------------------------------------------------
      1          8           0       -1.770669   -1.118688    0.400450
      2          6           0       -1.299183    0.201946    0.386118
      3          6           0        0.043617    0.347863   -0.328324
      4          8           0        0.410972    1.692590   -0.397475
      5          6           0        1.142821   -0.396297    0.416767
      6          8           0        2.362632   -0.371922   -0.275532
      7          1           0       -1.892395   -1.424312   -0.486352
      8          1           0       -1.201336    0.515686    1.414795
      9          1           0       -2.024301    0.864305   -0.086344
     10          1           0       -0.040909   -0.077618   -1.333453
     11          1           0       -0.267652    2.198696   -0.819905
     12          1           0        1.306358    0.085686    1.370791
     13          1           0        0.817667   -1.412712    0.604327
     14          1           0        2.412376   -1.105222   -0.865862
 ---------------------------------------------------------------------
                    Distance matrix (angstroms):
                    1          2          3          4          5
     1  O    0.000000
     2  C    1.402347   0.000000
     3  C    2.444078   1.528016   0.000000
     4  O    3.646851   2.400139   1.395716   0.000000
     5  C    3.001756   2.514402   1.522230   2.358399   0.000000
     6  O    4.254267   3.765102   2.428726   2.843600   1.402787
     7  H    0.945854   1.938509   2.629395   3.876658   3.329410
     8  H    2.006045   1.079900   2.148613   2.696101   2.706076
     9  H    2.057561   1.089833   2.145123   2.591026   3.445708
    10  H    2.661262   2.149031   1.094743   2.052776   2.136830
    11  H    3.841010   2.550599   1.940135   0.946108   3.201996
    12  H    3.443860   2.787820   2.133130   2.551592   1.081303
    13  H    2.612949   2.671290   2.137432   3.288147   1.083514
    14  H    4.370537   4.129384   2.830446   3.471709   1.938938
                    6          7          8          9         10
     6  O    0.000000
     7  H    4.388305   0.000000
     8  H    4.043133   2.802769   0.000000
     9  H    4.561714   2.327052   1.747062   0.000000
    10  H    2.642503   2.441140   3.041622   2.525142   0.000000
    11  H    3.717905   3.984624   2.949266   2.324763   2.344514
    12  H    2.008856   3.995134   2.544673   3.717900   3.025679
    13  H    2.060173   2.921327   2.907224   3.706564   2.504919
    14  H    0.942705   4.333232   4.570301   4.916380   2.700596
                   11         12         13         14
    11  H    0.000000
    12  H    3.426582   0.000000
    13  H    4.030958   1.752564   0.000000
    14  H    4.254473   2.764807   2.190685   0.000000
 Stoichiometry    C3H8O3
 Framework group  C1[X(C3H8O3)]
 Deg. of freedom    36
 Full point group                 C1      NOp   1
 RotChk:  IX=0 Diff= 2.17D-02
 Largest Abelian subgroup         C1      NOp   1
 Largest concise Abelian subgroup C1      NOp   1
                         Standard orientation:                         
 ---------------------------------------------------------------------
 Center     Atomic      Atomic             Coordinates (Angstroms)
 Number     Number       Type             X           Y           Z
 ---------------------------------------------------------------------
      1          8           0       -2.059366   -0.928315   -0.102383
      2          6           0       -1.438904    0.282068    0.239054
      3          6           0       -0.000152    0.377902   -0.266554
      4          8           0        0.528623    1.638379    0.015612
      5          6           0        0.886436   -0.659455    0.408010
      6          8           0        2.186888   -0.667786   -0.117886
      7          1           0       -2.088340   -1.018363   -1.043495
      8          1           0       -1.452690    0.353449    1.316504
      9          1           0       -2.006354    1.128051   -0.148308
     10          1           0        0.010246    0.191608   -1.345280
     11          1           0       -0.018618    2.315984   -0.353846
     12          1           0        0.967614   -0.419298    1.459176
     13          1           0        0.420785   -1.633856    0.320182
     14          1           0        2.233916   -1.258890   -0.850742
 ---------------------------------------------------------------------
 Rotational constants (GHZ):      5.2841741      2.3876557      1.7803545
 Leave Link  202 at Wed Sep 20 14:28:47 2023, MaxMem=    33554432 cpu:         0.0
 (Enter /mnt/storage/apps/eb/software/gaussian/09/l301.exe)
 Standard basis: 6-31G(d) (6D, 7F)
 Ernie: Thresh=  0.10000D-02 Tol=  0.10000D-05 Strict=F.
 There are   106 symmetry adapted cartesian basis functions of A   symmetry.
 There are   106 symmetry adapted basis functions of A   symmetry.
   106 basis functions,   200 primitive gaussians,   106 cartesian basis functions
    25 alpha electrons       25 beta electrons
       nuclear repulsion energy       262.3188221732 Hartrees.
 IExCor=    0 DFT=F Ex=HF Corr=None ExCW=0 ScaHFX=  1.000000
 ScaDFX=  1.000000  1.000000  1.000000  1.000000 ScalE2=  1.000000  1.000000
 IRadAn=      0 IRanWt=     -1 IRanGd=            0 ICorTp=0 IEmpDi=  4
 NAtoms=   14 NActive=   14 NUniq=   14 SFac= 1.00D+00 NAtFMM=   60 NAOKFM=F Big=F
 Integral buffers will be    131072 words long.
 Raffenetti 1 integral format.
 Two-electron integral symmetry is turned on.
 Leave Link  301 at Wed Sep 20 14:28:47 2023, MaxMem=    33554432 cpu:         0.0
 (Enter /mnt/storage/apps/eb/software/gaussian/09/l302.exe)
 NPDir=0 NMtPBC=     1 NCelOv=     1 NCel=       1 NClECP=     1 NCelD=      1
         NCelK=      1 NCelE2=     1 NClLst=     1 CellRange=     0.0.
 One-electron integrals computed using PRISM.
 NBasis=   106 RedAO= T EigKep=  3.16D-03  NBF=   106
 NBsUse=   106 1.00D-06 EigRej= -1.00D+00 NBFU=   106
 Leave Link  302 at Wed Sep 20 14:28:47 2023, MaxMem=    33554432 cpu:         0.1
 (Enter /mnt/storage/apps/eb/software/gaussian/09/l303.exe)
 DipDrv:  MaxL=1.
 Leave Link  303 at Wed Sep 20 14:28:47 2023, MaxMem=    33554432 cpu:         0.0
 (Enter /mnt/storage/apps/eb/software/gaussian/09/l401.exe)
 Initial guess from the checkpoint file:  "/scratch/nca121/18446470/Gau-42596.chk"
 B after Tr=     0.000000    0.000000    0.000000
         Rot=    0.999993    0.001832   -0.000870    0.003252 Ang=   0.44 deg.
 Guess basis will be translated and rotated to current coordinates.
 JPrj=2 DoOrth=T DoCkMO=T.
 Generating alternative initial guess.
 ExpMin= 1.61D-01 ExpMax= 5.48D+03 ExpMxC= 8.25D+02 IAcc=1 IRadAn=         1 AccDes= 0.00D+00
 Harris functional with IExCor=  205 and IRadAn=       1 diagonalized for initial guess.
 HarFok:  IExCor=  205 AccDes= 0.00D+00 IRadAn=         1 IDoV= 1 UseB2=F ITyADJ=14
 ICtDFT=  3500011 ScaDFX=  1.000000  1.000000  1.000000  1.000000
 FoFCou: FMM=F IPFlag=           0 FMFlag=      100000 FMFlg1=           0
         NFxFlg=           0 DoJE=T BraDBF=F KetDBF=T FulRan=T
         wScrn=  0.000000 ICntrl=     500 IOpCl=  0 I1Cent=   200000004 NGrid=           0
         NMat0=    1 NMatS0=      1 NMatT0=    0 NMatD0=    1 NMtDS0=    0 NMtDT0=    0
 Petite list used in FoFCou.
 Harris En= -343.197690787138    
 Leave Link  401 at Wed Sep 20 14:28:47 2023, MaxMem=    33554432 cpu:         0.3
 (Enter /mnt/storage/apps/eb/software/gaussian/09/l508.exe)
 Direct SCF.
 Tight linear equation convergence will be used.
 RHF wavefunction.
 Quadratic Convergence SCF Method.
 Line search only if initial step raises energy.
 Integral symmetry usage will be decided dynamically.
 ReadGW:  IGet=1 IStart=         402 Next=         402 LGW=           0.
 Keep R1 ints in memory in canonical form, NReq=17056428.
 FoFCou: FMM=F IPFlag=           0 FMFlag=           0 FMFlg1=           0
         NFxFlg=           0 DoJE=F BraDBF=F KetDBF=F FulRan=T
         wScrn=  0.000000 ICntrl=     600 IOpCl=  0 I1Cent=           0 NGrid=           0
         NMat0=    1 NMatS0=   5671 NMatT0=    0 NMatD0=    1 NMtDS0=    0 NMtDT0=    0
 Symmetry not used in FoFCou.
 Iteration   1 EE= -342.800406207630                                    Grad=5.938D-02 Max rot=    0.3722 deg.
 Gradient too large for Newton-Raphson -- use scaled steepest descent instead.
 Alpha Gap=     1.918 HL deriv= 3.94D-04
     ILin= 1 X=0.000D+00 Y=-3.428004062076D+02 DE= 0.00D+00 F= -2.96D-03
     ILin= 2 X=3.000D-01 Y=-3.428012016406D+02 DE=-7.95D-04 F= -2.34D-03
     ILin= 3 X=6.000D-01 Y=-3.428018131824D+02 DE=-1.41D-03 F= -1.73D-03
     ILin= 4 X=1.200D+00 Y=-3.428024844655D+02 DE=-2.08D-03 F= -5.06D-04
     ILin= 5 X=2.400D+00 Y=-3.428016190581D+02 DE=-1.21D-03 F=  1.95D-03
     An  expanding polynomial of degree  5 produced  1.4473
 Iteration   2 EE= -342.802546986346     Delta-E=       -0.002140778716 Grad=3.173D-02 Max rot=    0.1746 deg.
 Gradient too large for Newton-Raphson -- use scaled steepest descent instead.
 Alpha Gap=     1.918 HL deriv= 5.30D-05
     ILin= 1 X=0.000D+00 Y=-3.428025469863D+02 DE= 0.00D+00 F= -8.28D-04
     ILin= 2 X=7.000D-01 Y=-3.428029164163D+02 DE=-3.69D-04 F= -2.27D-04
     Reject lnstep minimum 1.141D+00 FVal=-3.428030207968D+02 Lims=  0.00D+00  7.00D-01
     ILin= 3 X=1.300D+00 Y=-3.428028980255D+02 DE=-3.51D-04 F=  2.88D-04
     An  expanding polynomial of degree  3 produced  0.9643
 Iteration   3 EE= -342.802946426531     Delta-E=       -0.000399440185 Grad=1.717D-02 Max rot=    0.1079 deg.
 Gradient too large for Newton-Raphson -- use scaled steepest descent instead.
 Alpha Gap=     1.918 HL deriv= 2.61D-04
     ILin= 1 X=0.000D+00 Y=-3.428029464265D+02 DE= 0.00D+00 F= -2.57D-04
     ILin= 2 X=1.200D+00 Y=-3.428030627123D+02 DE=-1.16D-04 F=  6.31D-05
     Accept linear search using points  1 and  2.
     An  expanding polynomial of degree  2 produced  1.0211
 Iteration   4 EE= -342.803069734079     Delta-E=       -0.000123307549 Grad=1.401D-02 Max rot=    0.0772 deg.
 Gradient too large for Newton-Raphson -- use scaled steepest descent instead.
 Alpha Gap=     1.918 HL deriv= 1.10D-04
     ILin= 1 X=0.000D+00 Y=-3.428030697341D+02 DE= 0.00D+00 F= -1.65D-04
     ILin= 2 X=1.000D+00 Y=-3.428031260269D+02 DE=-5.63D-05 F=  5.20D-05
     Accept linear search using points  1 and  2.
     An  expanding polynomial of degree  2 produced  0.7599
 Iteration   5 EE= -342.803132273830     Delta-E=       -0.000062539751 Grad=8.501D-03 Max rot=    0.0503 deg.
 QCNR:  CnvC1=6.36D-09 CnvC2=6.36D-08
 LinEq1:  Iter=  0 NonCon=     1 RMS=1.15D-04 Max=1.26D-03 NDo=     1
 AX will form     1 AO Fock derivatives at one time.
 LinEq1:  Iter=  1 NonCon=     1 RMS=1.21D-05 Max=1.20D-04 NDo=     1
 LinEq1:  Iter=  2 NonCon=     1 RMS=3.19D-06 Max=2.36D-05 NDo=     1
 LinEq1:  Iter=  3 NonCon=     1 RMS=1.14D-06 Max=6.77D-06 NDo=     1
 LinEq1:  Iter=  4 NonCon=     1 RMS=2.80D-07 Max=2.57D-06 NDo=     1
 LinEq1:  Iter=  5 NonCon=     1 RMS=9.10D-08 Max=7.01D-07 NDo=     1
 LinEq1:  Iter=  6 NonCon=     1 RMS=2.44D-08 Max=2.01D-07 NDo=     1
 LinEq1:  Iter=  7 NonCon=     0 RMS=5.92D-09 Max=4.79D-08 NDo=     1
 Linear equations converged to 6.364D-09 6.364D-08 after     7 iterations.
 Angle between quadratic step and gradient=  36.64 degrees.
     ILin= 1 X=0.000D+00 Y=-3.428031322738D+02 DE= 0.00D+00 F= -1.62D-04
     ILin= 2 X=1.000D+00 Y=-3.428032130986D+02 DE=-8.08D-05 F= -7.15D-09
     Reject lnstep minimum 1.000D+00 FVal=-3.428032130986D+02 Lims=  0.00D+00  1.00D+00
[...]
                           !   Optimized Parameters   !
                           ! (Angstroms and Degrees)  !
 --------------------------                            --------------------------
 ! Name  Definition              Value          Derivative Info.                !
 --------------------------------------------------------------------------------
 ! R1    R(1,2)                  1.4026         -DE/DX =    0.0                 !
 ! R2    R(1,7)                  0.9469         -DE/DX =    0.0                 !
 ! R3    R(2,3)                  1.528          -DE/DX =    0.0                 !
 ! R4    R(2,8)                  1.0822         -DE/DX =    0.0                 !
 ! R5    R(2,9)                  1.0887         -DE/DX =    0.0                 !
 ! R6    R(3,4)                  1.4024         -DE/DX =    0.0                 !
 ! R7    R(3,5)                  1.5205         -DE/DX =    0.0                 !
 ! R8    R(3,10)                 1.093          -DE/DX =    0.0                 !
 ! R9    R(4,11)                 0.9467         -DE/DX =    0.0                 !
 ! R10   R(5,6)                  1.4001         -DE/DX =    0.0                 !
 ! R11   R(5,12)                 1.0821         -DE/DX =    0.0                 !
 ! R12   R(5,13)                 1.0855         -DE/DX =    0.0                 !
 ! R13   R(6,14)                 0.9467         -DE/DX =    0.0                 !
 ! A1    A(2,1,7)              109.81           -DE/DX =    0.0                 !
 ! A2    A(1,2,3)              112.6703         -DE/DX =    0.0                 !
 ! A3    A(1,2,8)              106.8414         -DE/DX =    0.0                 !
 ! A4    A(1,2,9)              111.056          -DE/DX =    0.0                 !
 ! A5    A(3,2,8)              109.5071         -DE/DX =    0.0                 !
 ! A6    A(3,2,9)              109.3906         -DE/DX =    0.0                 !
 ! A7    A(8,2,9)              107.193          -DE/DX =    0.0                 !
 ! A8    A(2,3,4)              109.7733         -DE/DX =    0.0                 !
 ! A9    A(2,3,5)              111.6268         -DE/DX =    0.0                 !
 ! A10   A(2,3,10)             108.7699         -DE/DX =    0.0                 !
 ! A11   A(4,3,5)              107.7659         -DE/DX =    0.0                 !
 ! A12   A(4,3,10)             110.3759         -DE/DX =    0.0                 !
 ! A13   A(5,3,10)             108.5209         -DE/DX =    0.0                 !
 ! A14   A(3,4,11)             110.2726         -DE/DX =    0.0                 !
 ! A15   A(3,5,6)              113.0815         -DE/DX =    0.0                 !
 ! A16   A(3,5,12)             108.3599         -DE/DX =    0.0                 !
 ! A17   A(3,5,13)             109.2751         -DE/DX =    0.0                 !
 ! A18   A(6,5,12)             106.3961         -DE/DX =    0.0                 !
 ! A19   A(6,5,13)             111.2528         -DE/DX =    0.0                 !
 ! A20   A(12,5,13)            108.2951         -DE/DX =    0.0                 !
 ! A21   A(5,6,14)             109.6027         -DE/DX =    0.0                 !
 ! D1    D(7,1,2,3)            -74.1194         -DE/DX =    0.0                 !
 ! D2    D(7,1,2,8)            165.5797         -DE/DX =    0.0                 !
 ! D3    D(7,1,2,9)             48.9981         -DE/DX =    0.0                 !
 ! D4    D(1,2,3,4)            174.8438         -DE/DX =    0.0                 !
 ! D5    D(1,2,3,5)            -65.7282         -DE/DX =    0.0                 !
 ! D6    D(1,2,3,10)            53.9835         -DE/DX =    0.0                 !
 ! D7    D(8,2,3,4)            -66.4005         -DE/DX =    0.0                 !
 ! D8    D(8,2,3,5)             53.0276         -DE/DX =    0.0                 !
 ! D9    D(8,2,3,10)           172.7392         -DE/DX =    0.0                 !
 ! D10   D(9,2,3,4)             50.8021         -DE/DX =    0.0                 !
 ! D11   D(9,2,3,5)            170.2301         -DE/DX =    0.0                 !
 ! D12   D(9,2,3,10)           -70.0582         -DE/DX =    0.0                 !
 ! D13   D(2,3,4,11)           -74.5374         -DE/DX =    0.0                 !
 ! D14   D(5,3,4,11)           163.6966         -DE/DX =    0.0                 !
 ! D15   D(10,3,4,11)           45.3485         -DE/DX =    0.0                 !
 ! D16   D(2,3,5,6)            170.799          -DE/DX =    0.0                 !
 ! D17   D(2,3,5,12)           -71.5084         -DE/DX =    0.0                 !
 ! D18   D(2,3,5,13)            46.2957         -DE/DX =    0.0                 !
 ! D19   D(4,3,5,6)            -68.5921         -DE/DX =    0.0                 !
 ! D20   D(4,3,5,12)            49.1005         -DE/DX =    0.0                 !
 ! D21   D(4,3,5,13)           166.9045         -DE/DX =    0.0                 !
 ! D22   D(10,3,5,6)            50.9406         -DE/DX =    0.0                 !
 ! D23   D(10,3,5,12)          168.6332         -DE/DX =    0.0                 !
 ! D24   D(10,3,5,13)          -73.5628         -DE/DX =    0.0                 !
 ! D25   D(3,5,6,14)           -73.0373         -DE/DX =    0.0                 !
 ! D26   D(12,5,6,14)          168.1269         -DE/DX =    0.0                 !
 ! D27   D(13,5,6,14)           50.3819         -DE/DX =    0.0                 !
 --------------------------------------------------------------------------------
 Lowest energy point so far.  Saving SCF results.
 GradGradGradGradGradGradGradGradGradGradGradGradGradGradGradGradGradGrad

 Largest change from initial coordinates is atom   12       0.184 Angstoms.
 Leave Link  103 at Wed Sep 20 14:29:34 2023, MaxMem=    33554432 cpu:         0.0
 (Enter /mnt/storage/apps/eb/software/gaussian/09/l202.exe)
                          Input orientation:                          
 ---------------------------------------------------------------------
 Center     Atomic      Atomic             Coordinates (Angstroms)
 Number     Number       Type             X           Y           Z
 ---------------------------------------------------------------------
      1          8           0       -1.744495   -1.168718    0.356303
      2          6           0       -1.299756    0.161017    0.390606
      3          6           0        0.054750    0.346804   -0.291837
      4          8           0        0.385512    1.709218   -0.326757
      5          6           0        1.162407   -0.380575    0.453818
      6          8           0        2.373282   -0.404101   -0.248600
      7          1           0       -2.040324   -1.385744   -0.516653
      8          1           0       -1.219900    0.438122    1.433718
      9          1           0       -2.028721    0.829165   -0.064978
     10          1           0       -0.004101   -0.056625   -1.305924
     11          1           0       -0.131964    2.155724   -0.981865
     12          1           0        1.355548    0.148314    1.377866
     13          1           0        0.830105   -1.384452    0.698843
     14          1           0        2.307658   -1.008150   -0.974540
 ---------------------------------------------------------------------
                    Distance matrix (angstroms):
                    1          2          3          4          5
     1  O    0.000000
     2  C    1.402557   0.000000
     3  C    2.440118   1.528049   0.000000
     4  O    3.644999   2.398263   1.402425   0.000000
     5  C    3.013429   2.521817   1.520521   2.362224   0.000000
     6  O    4.231624   3.770830   2.437482   2.902319   1.400059
     7  H    0.946925   1.940111   2.727930   3.936945   3.494233
     8  H    2.004484   1.082241   2.147233   2.700427   2.702934
     9  H    2.061504   1.088746   2.150579   2.582933   3.451944
    10  H    2.651173   2.145764   1.092973   2.056397   2.135972
    11  H    3.929741   2.688172   1.945043   0.946739   3.188949
    12  H    3.519720   2.832928   2.125883   2.506617   1.082077
    13  H    2.606231   2.649489   2.140062   3.289424   1.085463
    14  H    4.268122   4.030386   2.716169   3.390923   1.935370
                    6          7          8          9         10
     6  O    0.000000
     7  H    4.529393   0.000000
     8  H    4.055921   2.793480   0.000000
     9  H    4.575183   2.260524   1.747339   0.000000
    10  H    2.625000   2.556504   3.037857   2.534493   0.000000
    11  H    3.656042   4.049724   3.157341   2.489604   2.239609
    12  H    1.996581   4.180249   2.592304   3.741475   3.015522
    13  H    2.059158   3.117177   2.839777   3.695457   2.545214
    14  H    0.946662   4.388301   4.509442   4.796583   2.521794
                   11         12         13         14
    11  H    0.000000
    12  H    3.436672   0.000000
    13  H    4.035245   1.756853   0.000000
    14  H    3.995235   2.788859   2.263841   0.000000
 Stoichiometry    C3H8O3
 Framework group  C1[X(C3H8O3)]
 Deg. of freedom    36
 Full point group                 C1      NOp   1
 RotChk:  IX=0 Diff= 1.59D-15
 Largest Abelian subgroup         C1      NOp   1
 Largest concise Abelian subgroup C1      NOp   1
                         Standard orientation:                         
 ---------------------------------------------------------------------
 Center     Atomic      Atomic             Coordinates (Angstroms)
 Number     Number       Type             X           Y           Z
 ---------------------------------------------------------------------
      1          8           0       -2.047165   -0.935463   -0.114561
      2          6           0       -1.438706    0.276464    0.243453
      3          6           0        0.004243    0.379026   -0.248801
      4          8           0        0.513789    1.653813    0.037688
      5          6           0        0.902083   -0.642926    0.430523
      6          8           0        2.178735   -0.716849   -0.139442
      7          1           0       -2.255489   -0.929394   -1.038266
      8          1           0       -1.456418    0.328944    1.324276
      9          1           0       -2.009039    1.125635   -0.129371
     10          1           0        0.022222    0.195289   -1.326070
     11          1           0        0.147485    2.294400   -0.555426
     12          1           0        1.044149   -0.340995    1.459866
     13          1           0        0.411627   -1.611245    0.424048
     14          1           0        2.126870   -1.150020   -0.979587
 ---------------------------------------------------------------------
 Rotational constants (GHZ):      5.1794099      2.3893568      1.7784946
 Leave Link  202 at Wed Sep 20 14:29:34 2023, MaxMem=    33554432 cpu:         0.0
 (Enter /mnt/storage/apps/eb/software/gaussian/09/l601.exe)
 Copying SCF densities to generalized density rwf, IOpCl= 0 IROHF=0.

 **********************************************************************

            Population analysis using the SCF density.

 **********************************************************************

 Orbital symmetries:
       Occupied  (A) (A) (A) (A) (A) (A) (A) (A) (A) (A) (A) (A)
                 (A) (A) (A) (A) (A) (A) (A) (A) (A) (A) (A) (A)
                 (A)
       Virtual   (A) (A) (A) (A) (A) (A) (A) (A) (A) (A) (A) (A)
                 (A) (A) (A) (A) (A) (A) (A) (A) (A) (A) (A) (A)
                 (A) (A) (A) (A) (A) (A) (A) (A) (A) (A) (A) (A)
                 (A) (A) (A) (A) (A) (A) (A) (A) (A) (A) (A) (A)
                 (A) (A) (A) (A) (A) (A) (A) (A) (A) (A) (A) (A)
                 (A) (A) (A) (A) (A) (A) (A) (A) (A) (A) (A) (A)
                 (A) (A) (A) (A) (A) (A) (A) (A) (A)
 The electronic state is 1-A.
 Alpha  occ. eigenvalues --  -20.57129 -20.56431 -20.55294 -11.28120 -11.27905
 Alpha  occ. eigenvalues --  -11.26581  -1.38596  -1.37208  -1.35495  -1.03126
 Alpha  occ. eigenvalues --   -0.92256  -0.82611  -0.72887  -0.71423  -0.68347
 Alpha  occ. eigenvalues --   -0.63801  -0.60732  -0.60177  -0.57900  -0.53338
 Alpha  occ. eigenvalues --   -0.51542  -0.49212  -0.48005  -0.44242  -0.41468
 Alpha virt. eigenvalues --    0.20425   0.22117   0.23334   0.27542   0.30644
 Alpha virt. eigenvalues --    0.31618   0.32748   0.34435   0.38597   0.43004
 Alpha virt. eigenvalues --    0.43949   0.46190   0.48593   0.74854   0.79498
 Alpha virt. eigenvalues --    0.80455   0.82187   0.83377   0.89581   0.93733
 Alpha virt. eigenvalues --    0.95834   0.97477   1.04506   1.07838   1.08817
 Alpha virt. eigenvalues --    1.11592   1.14419   1.15520   1.17662   1.17969
 Alpha virt. eigenvalues --    1.19942   1.22279   1.26658   1.29707   1.31761
 Alpha virt. eigenvalues --    1.32953   1.36141   1.40906   1.43476   1.48695
 Alpha virt. eigenvalues --    1.60143   1.65430   1.71559   1.74488   1.81551
 Alpha virt. eigenvalues --    1.86446   1.90441   1.90952   2.00186   2.02816
 Alpha virt. eigenvalues --    2.05485   2.09437   2.14712   2.16401   2.23342
 Alpha virt. eigenvalues --    2.28082   2.40085   2.41319   2.44730   2.46338
 Alpha virt. eigenvalues --    2.49531   2.54662   2.62437   2.67629   2.71927
 Alpha virt. eigenvalues --    2.77194   2.81044   2.85835   2.92410   2.94978
 Alpha virt. eigenvalues --    3.03234   3.13775   3.23330   3.26601   3.30935
 Alpha virt. eigenvalues --    4.12019   4.21982   4.29676   4.65153   4.78070
 Alpha virt. eigenvalues --    4.96954
          Condensed to atoms (all electrons):
               1          2          3          4          5          6
     1  O    8.394552   0.181454  -0.044532   0.001787  -0.000947  -0.000001
     2  C    0.181454   4.898160   0.333932  -0.044284  -0.053851   0.002714
     3  C   -0.044532   0.333932   4.949065   0.183553   0.343499  -0.046841
     4  O    0.001787  -0.044284   0.183553   8.410175  -0.055840   0.003651
     5  C   -0.000947  -0.053851   0.343499  -0.055840   4.807323   0.220253
     6  O   -0.000001   0.002714  -0.046841   0.003651   0.220253   8.365352
     7  H    0.260791  -0.024660  -0.002935  -0.000017  -0.000206  -0.000008
     8  H   -0.034134   0.397692  -0.044220   0.004410  -0.006280  -0.000010
     9  H   -0.032284   0.395483  -0.052769   0.004085   0.005033  -0.000060
    10  H    0.003962  -0.057639   0.390982  -0.034510  -0.047509  -0.000310
    11  H   -0.000016  -0.003104  -0.020953   0.260839   0.006523  -0.000329
    12  H    0.000325  -0.003044  -0.043501   0.000359   0.397328  -0.035154
    13  H    0.006357   0.001662  -0.059492   0.003111   0.402050  -0.035466
    14  H    0.000015  -0.000119  -0.003360  -0.000054  -0.026217   0.261158
               7          8          9         10         11         12
     1  O    0.260791  -0.034134  -0.032284   0.003962  -0.000016   0.000325
     2  C   -0.024660   0.397692   0.395483  -0.057639  -0.003104  -0.003044
     3  C   -0.002935  -0.044220  -0.052769   0.390982  -0.020953  -0.043501
     4  O   -0.000017   0.004410   0.004085  -0.034510   0.260839   0.000359
     5  C   -0.000206  -0.006280   0.005033  -0.047509   0.006523   0.397328
     6  O   -0.000008  -0.000010  -0.000060  -0.000310  -0.000329  -0.035154
     7  H    0.325632   0.005576  -0.005823   0.003643  -0.000012   0.000013
     8  H    0.005576   0.515877  -0.033047   0.005325  -0.000338   0.003386
     9  H   -0.005823  -0.033047   0.579475  -0.004303   0.003393  -0.000227
    10  H    0.003643   0.005325  -0.004303   0.617204  -0.005947   0.005114
    11  H   -0.000012  -0.000338   0.003393  -0.005947   0.320603  -0.000220
    12  H    0.000013   0.003386  -0.000227   0.005114  -0.000220   0.515147
    13  H   -0.000040  -0.000029   0.000211   0.000289  -0.000190  -0.028431
    14  H   -0.000003   0.000010   0.000000   0.003470  -0.000010   0.005657
              13         14
     1  O    0.006357   0.000015
     2  C    0.001662  -0.000119
     3  C   -0.059492  -0.003360
     4  O    0.003111  -0.000054
     5  C    0.402050  -0.026217
     6  O   -0.035466   0.261158
     7  H   -0.000040  -0.000003
     8  H   -0.000029   0.000010
     9  H    0.000211   0.000000
    10  H    0.000289   0.003470
    11  H   -0.000190  -0.000010
    12  H   -0.028431   0.005657
    13  H    0.547819  -0.005349
    14  H   -0.005349   0.332687
 Mulliken charges:
               1
     1  O   -0.737326
     2  C   -0.024395
     3  C    0.117575
     4  O   -0.737265
     5  C    0.008842
     6  O   -0.734950
     7  H    0.438049
     8  H    0.185783
     9  H    0.140833
    10  H    0.120230
    11  H    0.439763
    12  H    0.183249
    13  H    0.167498
    14  H    0.432114
 Sum of Mulliken charges =   0.00000
 Mulliken charges with hydrogens summed into heavy atoms:
               1
     1  O   -0.299277
     2  C    0.302222
     3  C    0.237804
     4  O   -0.297502
     5  C    0.359588
     6  O   -0.302836
 Electronic spatial extent (au):  <R**2>=            677.2150
 Charge=              0.0000 electrons
 Dipole moment (field-independent basis, Debye):
    X=             -2.3207    Y=              0.4080    Z=             -3.1707  Tot=              3.9504
 Quadrupole moment (field-independent basis, Debye-Ang):
   XX=            -44.1970   YY=            -35.2719   ZZ=            -31.0381
   XY=             -5.0416   XZ=              0.9026   YZ=              0.2643
 Traceless Quadrupole moment (field-independent basis, Debye-Ang):
   XX=             -7.3614   YY=              1.5638   ZZ=              5.7975
   XY=             -5.0416   XZ=              0.9026   YZ=              0.2643
 Octapole moment (field-independent basis, Debye-Ang**2):
  XXX=            -11.6127  YYY=              8.8058  ZZZ=             -5.9213  XYY=              1.4693
  XXY=              3.2432  XXZ=            -14.6624  XZZ=             -0.3082  YZZ=             -3.0259
  YYZ=            -11.8260  XYZ=              0.0224
 Hexadecapole moment (field-independent basis, Debye-Ang**3):
 XXXX=           -536.8686 YYYY=           -195.4047 ZZZZ=            -65.2182 XXXY=             -3.5341
 XXXZ=              7.8844 YYYX=             -8.0487 YYYZ=             -9.8506 ZZZX=              1.3269
 ZZZY=              5.4183 XXYY=           -124.2327 XXZZ=            -71.6362 YYZZ=            -43.2573
 XXYZ=             18.2314 YYXZ=             -2.1281 ZZXY=              0.6823
 N-N= 2.618669915619D+02 E-N=-1.331945332173D+03  KE= 3.422790968447D+02
 No NMR shielding tensors so no spin-rotation constants.
 Leave Link  601 at Wed Sep 20 14:29:34 2023, MaxMem=    33554432 cpu:         0.1
 (Enter /mnt/storage/apps/eb/software/gaussian/09/l9999.exe)
 1\1\GINC-SB084\FOpt\RHF\6-31G(d)\C3H8O3\NCA121\20-Sep-2023\0\\#P hf/6-
 31G* scf(qc) opt(tight,maxcycle=100)\\Gaussian input prepared by ASE\\
 0,1\O,-1.7444952132,-1.1687175985,0.3563026524\C,-1.2997560932,0.16101
 74962,0.3906063738\C,0.054750257,0.346804066,-0.2918369152\O,0.3855119
 273,1.7092181579,-0.3267571947\C,1.1624065454,-0.3805754402,0.45381809
 96\O,2.3732823849,-0.4041010048,-0.2486004513\H,-2.0403242907,-1.38574
 42068,-0.5166528871\H,-1.2198999549,0.4381221883,1.433717826\H,-2.0287
 20846,0.8291652372,-0.0649779704\H,-0.0041013843,-0.0566245725,-1.3059
 239851\H,-0.1319637922,2.1557242398,-0.9818647411\H,1.3555481938,0.148
 3140346,1.3778655597\H,0.8301045651,-1.384451695,0.6988425631\H,2.3076
 577011,-1.0081499022,-0.9745399297\\Version=ES64L-G09RevD.01\State=1-A
 \HF=-342.804416\RMSD=0.000e+00\RMSF=6.688e-07\Dipole=-1.0441484,-0.229
 007,-1.1282041\Quadrupole=-3.9519001,0.3468415,3.6050586,-4.1276926,2.
 3734048,1.5629335\PG=C01 [X(C3H8O3)]\\@


 ... SUBJECTS WHICH DISCLOSE THEIR FULL POWER, MEANING AND BEAUTY AS SOON
 AS THEY ARE PRESENTED TO THE MIND HAVE VERY LITTLE OF THOSE QUALITIES
 TO DISCLOSE.
                           -- CHARLES DUTTON (1882)
 Job cpu time:       0 days  0 hours  0 minutes 55.0 seconds.
 File lengths (MBytes):  RWF=      6 Int=      0 D2E=      0 Chk=      2 Scr=      1
 Normal termination of Gaussian 09 at Wed Sep 20 14:29:35 2023.
