 Entering Gaussian System, Link 0=g09
 Initial command:
 /mnt/storage/apps/eb/software/gaussian/09/l1.exe "/scratch/nca121/18446470/Gau-12938.inp" -scrdir="/scratch/nca121/18446470/"
 Entering Link 1 = /mnt/storage/apps/eb/software/gaussian/09/l1.exe PID=     12939.
  
 Copyright (c) 1988,1990,1992,1993,1995,1998,2003,2009,2013,
            Gaussian, Inc.  All Rights Reserved.
  
 This is part of the Gaussian(R) 09 program.  It is based on
 the Gaussian(R) 03 system (copyright 2003, Gaussian, Inc.),
 the Gaussian(R) 98 system (copyright 1998, Gaussian, Inc.),
 the Gaussian(R) 94 system (copyright 1995, Gaussian, Inc.),
 the Gaussian 92(TM) system (copyright 1992, Gaussian, Inc.),
 the Gaussian 90(TM) system (copyright 1990, Gaussian, Inc.),
 the Gaussian 88(TM) system (copyright 1988, Gaussian, Inc.),
 the Gaussian 86(TM) system (copyright 1986, Carnegie Mellon
 University), and the Gaussian 82(TM) system (copyright 1983,
 Carnegie Mellon University). Gaussian is a federally registered
 trademark of Gaussian, Inc.
  
 This software contains proprietary and confidential information,
 including trade secrets, belonging to Gaussian, Inc.
  
 This software is provided under written license and may be
 used, copied, transmitted, or stored only in accord with that
 written license.
  
 The following legend is applicable only to US Government
 contracts under FAR:
  
                    RESTRICTED RIGHTS LEGEND
  
 Use, reproduction and disclosure by the US Government is
 subject to restrictions as set forth in subparagraphs (a)
 and (c) of the Commercial Computer Software - Restricted
 Rights clause in FAR 52.227-19.
  
 Gaussian, Inc.
 340 Quinnipiac St., Bldg. 40, Wallingford CT 06492
  
  
 ---------------------------------------------------------------
 Warning -- This program may not be used in any manner that
 competes with the business of Gaussian, Inc. or will provide
 assistance to any competitor of Gaussian, Inc.  The licensee
 of this program is prohibited from giving any competitor of
 Gaussian, Inc. access to this program.  By using this program,
 the user acknowledges that Gaussian, Inc. is engaged in the
 business of creating and licensing software in the field of
 computational chemistry and represents and warrants to the
 licensee that it is not a competitor of Gaussian, Inc. and that
 it will not use this program in any manner prohibited above.
 ---------------------------------------------------------------
  

 Cite this work as:
 Gaussian 09, Revision D.01,
 M. J. Frisch, G. W. Trucks, H. B. Schlegel, G. E. Scuseria, 
 M. A. Robb, J. R. Cheeseman, G. Scalmani, V. Barone, B. Mennucci, 
 G. A. Petersson, H. Nakatsuji, M. Caricato, X. Li, H. P. Hratchian, 
 A. F. Izmaylov, J. Bloino, G. Zheng, J. L. Sonnenberg, M. Hada, 
 M. Ehara, K. Toyota, R. Fukuda, J. Hasegawa, M. Ishida, T. Nakajima, 
 Y. Honda, O. Kitao, H. Nakai, T. Vreven, J. A. Montgomery, Jr., 
 J. E. Peralta, F. Ogliaro, M. Bearpark, J. J. Heyd, E. Brothers, 
 K. N. Kudin, V. N. Staroverov, T. Keith, R. Kobayashi, J. Normand, 
 K. Raghavachari, A. Rendell, J. C. Burant, S. S. Iyengar, J. Tomasi, 
 M. Cossi, N. Rega, J. M. Millam, M. Klene, J. E. Knox, J. B. Cross, 
 V. Bakken, C. Adamo, J. Jaramillo, R. Gomperts, R. E. Stratmann, 
 O. Yazyev, A. J. Austin, R. Cammi, C. Pomelli, J. W. Ochterski, 
 R. L. Martin, K. Morokuma, V. G. Zakrzewski, G. A. Voth, 
 P. Salvador, J. J. Dannenberg, S. Dapprich, A. D. Daniels, 
 O. Farkas, J. B. Foresman, J. V. Ortiz, J. Cioslowski, 
 and D. J. Fox, Gaussian, Inc., Wallingford CT, 2013.
 
 ******************************************
 Gaussian 09:  ES64L-G09RevD.01 24-Apr-2013
                20-Sep-2023 
 ******************************************
 --------------------------------------------
 #P hf/6-31G* scf(qc) opt(tight,maxcycle=100)
 --------------------------------------------
 1/6=100,7=10,18=20,19=15,38=1/1,3;
 2/9=110,12=2,17=6,18=5,40=1/2;
 3/5=1,6=6,7=1,11=9,16=1,25=1,30=1,71=1/1,2,3;
 4//1;
 5/5=2,8=3,38=5/8;
 6/7=2,8=2,9=2,10=2,28=1/1;
 7//1,2,3,16;
 1/6=100,7=10,18=20,19=15/3(2);
 2/9=110/2;
 99//99;
 2/9=110/2;
 3/5=1,6=6,7=1,11=9,16=1,25=1,30=1,71=1/1,2,3;
 4/5=5,16=3,69=1/1;
 5/5=2,8=3,38=5/8;
 7//1,2,3,16;
 1/6=100,7=10,18=20,19=15/3(-5);
 2/9=110/2;
 6/7=2,8=2,9=2,10=2,19=2,28=1/1;
 99/9=1/99;
 Leave Link    1 at Wed Sep 20 14:37:37 2023, MaxMem=           0 cpu:         0.0
 (Enter /mnt/storage/apps/eb/software/gaussian/09/l101.exe)
 ------------------------------
 Gaussian input prepared by ASE
 ------------------------------
 Symbolic Z-matrix:
 Charge =  0 Multiplicity = 1
 O                     1.67895   0.43392  -0.93235 
 C                     1.12618  -0.74957  -0.42431 
 C                    -0.12801  -0.4079    0.32449 
 O                     0.2622    0.46994   1.36143 
 C                    -1.13992   0.31918  -0.52704 
 O                    -2.2396    0.67079   0.25111 
 H                     2.17528   0.93668  -0.25459 
 H                     1.8633   -1.12003   0.33093 
 H                     0.99017  -1.51387  -1.20097 
 H                    -0.58585  -1.30771   0.76132 
 H                     0.41795  -0.09902   2.1516 
 H                    -1.5145   -0.40974  -1.3007 
 H                    -0.70453   1.15485  -1.08452 
 H                    -2.20162   1.62247   0.54358 
 
 NAtoms=     14 NQM=       14 NQMF=       0 NMMI=      0 NMMIF=      0
                NMic=       0 NMicF=      0.
                    Isotopes and Nuclear Properties:
 (Nuclear quadrupole moments (NQMom) in fm**2, nuclear magnetic moments (NMagM)
  in nuclear magnetons)

  Atom         1           2           3           4           5           6           7           8           9          10
 IAtWgt=          16          12          12          16          12          16           1           1           1           1
 AtmWgt=  15.9949146  12.0000000  12.0000000  15.9949146  12.0000000  15.9949146   1.0078250   1.0078250   1.0078250   1.0078250
 NucSpn=           0           0           0           0           0           0           1           1           1           1
 AtZEff=   0.0000000   0.0000000   0.0000000   0.0000000   0.0000000   0.0000000   0.0000000   0.0000000   0.0000000   0.0000000
 NQMom=    0.0000000   0.0000000   0.0000000   0.0000000   0.0000000   0.0000000   0.0000000   0.0000000   0.0000000   0.0000000
 NMagM=    0.0000000   0.0000000   0.0000000   0.0000000   0.0000000   0.0000000   2.7928460   2.7928460   2.7928460   2.7928460
 AtZNuc=   8.0000000   6.0000000   6.0000000   8.0000000   6.0000000   8.0000000   1.0000000   1.0000000   1.0000000   1.0000000

  Atom        11          12          13          14
 IAtWgt=           1           1           1           1
 AtmWgt=   1.0078250   1.0078250   1.0078250   1.0078250
 NucSpn=           1           1           1           1
 AtZEff=   0.0000000   0.0000000   0.0000000   0.0000000
 NQMom=    0.0000000   0.0000000   0.0000000   0.0000000
 NMagM=    2.7928460   2.7928460   2.7928460   2.7928460
 AtZNuc=   1.0000000   1.0000000   1.0000000   1.0000000
 Leave Link  101 at Wed Sep 20 14:37:37 2023, MaxMem=    33554432 cpu:         0.1
 (Enter /mnt/storage/apps/eb/software/gaussian/09/l103.exe)

 GradGradGradGradGradGradGradGradGradGradGradGradGradGradGradGradGradGrad
 Berny optimization.
 Initialization pass.
                           ----------------------------
                           !    Initial Parameters    !
                           ! (Angstroms and Degrees)  !
 --------------------------                            --------------------------
 ! Name  Definition              Value          Derivative Info.                !
 --------------------------------------------------------------------------------
 ! R1    R(1,2)                  1.4015         estimate D2E/DX2                !
 ! R2    R(1,7)                  0.979          estimate D2E/DX2                !
 ! R3    R(2,3)                  1.5001         estimate D2E/DX2                !
 ! R4    R(2,8)                  1.1185         estimate D2E/DX2                !
 ! R5    R(2,9)                  1.0981         estimate D2E/DX2                !
 ! R6    R(3,4)                  1.4135         estimate D2E/DX2                !
 ! R7    R(3,5)                  1.5092         estimate D2E/DX2                !
 ! R8    R(3,10)                 1.1            estimate D2E/DX2                !
 ! R9    R(4,11)                 0.9861         estimate D2E/DX2                !
 ! R10   R(5,6)                  1.3923         estimate D2E/DX2                !
 ! R11   R(5,12)                 1.127          estimate D2E/DX2                !
 ! R12   R(5,13)                 1.0949         estimate D2E/DX2                !
 ! R13   R(6,14)                 0.9963         estimate D2E/DX2                !
 ! A1    A(2,1,7)              112.4979         estimate D2E/DX2                !
 ! A2    A(1,2,3)              108.5633         estimate D2E/DX2                !
 ! A3    A(1,2,8)              105.3389         estimate D2E/DX2                !
 ! A4    A(1,2,9)              112.3463         estimate D2E/DX2                !
 ! A5    A(3,2,8)              106.821          estimate D2E/DX2                !
 ! A6    A(3,2,9)              114.0797         estimate D2E/DX2                !
 ! A7    A(8,2,9)              109.1879         estimate D2E/DX2                !
 ! A8    A(2,3,4)              106.0706         estimate D2E/DX2                !
 ! A9    A(2,3,5)              112.871          estimate D2E/DX2                !
 ! A10   A(2,3,10)             111.0929         estimate D2E/DX2                !
 ! A11   A(4,3,5)              107.4457         estimate D2E/DX2                !
 ! A12   A(4,3,10)             109.3641         estimate D2E/DX2                !
 ! A13   A(5,3,10)             109.8193         estimate D2E/DX2                !
 ! A14   A(3,4,11)             105.8497         estimate D2E/DX2                !
 ! A15   A(3,5,6)              109.6276         estimate D2E/DX2                !
 ! A16   A(3,5,12)             107.3717         estimate D2E/DX2                !
 ! A17   A(3,5,13)             112.8529         estimate D2E/DX2                !
 ! A18   A(6,5,12)             106.5288         estimate D2E/DX2                !
 ! A19   A(6,5,13)             113.9493         estimate D2E/DX2                !
 ! A20   A(12,5,13)            106.039          estimate D2E/DX2                !
 ! A21   A(5,6,14)             112.0359         estimate D2E/DX2                !
 ! D1    D(7,1,2,3)             79.4412         estimate D2E/DX2                !
 ! D2    D(7,1,2,8)            -34.6793         estimate D2E/DX2                !
 ! D3    D(7,1,2,9)           -153.4454         estimate D2E/DX2                !
 ! D4    D(1,2,3,4)            -59.998          estimate D2E/DX2                !
 ! D5    D(1,2,3,5)             57.3977         estimate D2E/DX2                !
 ! D6    D(1,2,3,10)          -178.7456         estimate D2E/DX2                !
 ! D7    D(8,2,3,4)             53.1461         estimate D2E/DX2                !
 ! D8    D(8,2,3,5)            170.5417         estimate D2E/DX2                !
 ! D9    D(8,2,3,10)           -65.6015         estimate D2E/DX2                !
 ! D10   D(9,2,3,4)            173.8892         estimate D2E/DX2                !
 ! D11   D(9,2,3,5)            -68.7151         estimate D2E/DX2                !
 ! D12   D(9,2,3,10)            55.1416         estimate D2E/DX2                !
 ! D13   D(2,3,4,11)           -93.7781         estimate D2E/DX2                !
 ! D14   D(5,3,4,11)           145.2581         estimate D2E/DX2                !
 ! D15   D(10,3,4,11)           26.104          estimate D2E/DX2                !
 ! D16   D(2,3,5,6)           -176.5664         estimate D2E/DX2                !
 ! D17   D(2,3,5,12)            68.0897         estimate D2E/DX2                !
 ! D18   D(2,3,5,13)           -48.3976         estimate D2E/DX2                !
 ! D19   D(4,3,5,6)            -59.9838         estimate D2E/DX2                !
 ! D20   D(4,3,5,12)          -175.3277         estimate D2E/DX2                !
 ! D21   D(4,3,5,13)            68.185          estimate D2E/DX2                !
 ! D22   D(10,3,5,6)            58.878          estimate D2E/DX2                !
 ! D23   D(10,3,5,12)          -56.4659         estimate D2E/DX2                !
 ! D24   D(10,3,5,13)         -172.9532         estimate D2E/DX2                !
 ! D25   D(3,5,6,14)            99.4243         estimate D2E/DX2                !
 ! D26   D(12,5,6,14)         -144.6959         estimate D2E/DX2                !
 ! D27   D(13,5,6,14)          -28.1341         estimate D2E/DX2                !
 --------------------------------------------------------------------------------
 Trust Radius=3.00D-01 FncErr=1.00D-07 GrdErr=1.00D-07
 Number of steps in this run=    100 maximum allowed number of steps=    100.
 GradGradGradGradGradGradGradGradGradGradGradGradGradGradGradGradGradGrad

 Leave Link  103 at Wed Sep 20 14:37:37 2023, MaxMem=    33554432 cpu:         0.0
 (Enter /mnt/storage/apps/eb/software/gaussian/09/l202.exe)
                          Input orientation:                          
 ---------------------------------------------------------------------
 Center     Atomic      Atomic             Coordinates (Angstroms)
 Number     Number       Type             X           Y           Z
 ---------------------------------------------------------------------
      1          8           0        1.678948    0.433917   -0.932345
      2          6           0        1.126178   -0.749567   -0.424308
      3          6           0       -0.128005   -0.407898    0.324490
      4          8           0        0.262200    0.469940    1.361432
      5          6           0       -1.139924    0.319183   -0.527036
      6          8           0       -2.239598    0.670794    0.251111
      7          1           0        2.175277    0.936681   -0.254585
      8          1           0        1.863301   -1.120030    0.330928
      9          1           0        0.990169   -1.513871   -1.200970
     10          1           0       -0.585853   -1.307709    0.761317
     11          1           0        0.417954   -0.099021    2.151605
     12          1           0       -1.514497   -0.409743   -1.300700
     13          1           0       -0.704526    1.154853   -1.084520
     14          1           0       -2.201624    1.622470    0.543580
 ---------------------------------------------------------------------
                    Distance matrix (angstroms):
                    1          2          3          4          5
     1  O    0.000000
     2  C    1.401532   0.000000
     3  C    2.356558   1.500137   0.000000
     4  O    2.696273   2.328631   1.413545   0.000000
     5  C    2.850172   2.507588   1.509213   2.356903   0.000000
     6  O    4.100205   3.715113   2.372295   2.744476   1.392274
     7  H    0.979016   1.993200   2.729163   2.547395   3.383207
     8  H    2.011118   1.118470   2.114822   2.480618   3.439011
     9  H    2.083376   1.098118   2.191008   3.321347   2.889908
    10  H    3.321306   2.155987   1.100047   2.058973   2.147935
    11  H    3.374148   2.749567   1.931793   0.986078   3.126819
    12  H    3.323483   2.802982   2.136260   3.319253   1.127029
    13  H    2.494765   2.722898   2.181714   2.717783   1.094853
    14  H    4.318547   4.199718   2.910376   2.840358   1.992983
                    6          7          8          9         10
     6  O    0.000000
     7  H    4.451690   0.000000
     8  H    4.477410   2.161068   0.000000
     9  H    4.160853   2.881897   1.806705   0.000000
    10  H    2.628623   3.700430   2.493755   2.525256   0.000000
    11  H    3.356646   3.154459   2.538967   3.683611   2.097965
    12  H    2.025203   4.064683   3.817884   2.739050   2.433236
    13  H    2.091571   3.004939   3.711108   3.163485   3.079839
    14  H    0.996327   4.501626   4.908171   4.802877   3.353218
                   11         12         13         14
    11  H    0.000000
    12  H    3.968542   0.000000
    13  H    3.647556   1.775034   0.000000
    14  H    3.522991   2.829028   2.260681   0.000000
 Stoichiometry    C3H8O3
 Framework group  C1[X(C3H8O3)]
 Deg. of freedom    36
 Full point group                 C1      NOp   1
 Largest Abelian subgroup         C1      NOp   1
 Largest concise Abelian subgroup C1      NOp   1
                         Standard orientation:                         
 ---------------------------------------------------------------------
 Center     Atomic      Atomic             Coordinates (Angstroms)
 Number     Number       Type             X           Y           Z
 ---------------------------------------------------------------------
      1          8           0        1.792525   -0.603237   -0.672495
      2          6           0        1.402630   -0.212255    0.615684
      3          6           0       -0.015712    0.272997    0.558707
      4          8           0       -0.019944    1.364909   -0.338967
      5          6           0       -0.968812   -0.763290    0.015168
      6          8           0       -2.246547   -0.218727   -0.081114
      7          1           0        2.035730    0.158318   -1.237612
      8          1           0        2.038524    0.674589    0.860880
      9          1           0        1.577387   -0.998972    1.361605
     10          1           0       -0.358033    0.612395    1.547508
     11          1           0        0.091246    2.171393    0.217422
     12          1           0       -1.030791   -1.594327    0.773937
     13          1           0       -0.611650   -1.225276   -0.910958
     14          1           0       -2.459316    0.073606   -1.009521
 ---------------------------------------------------------------------
 Rotational constants (GHZ):      6.1673730      2.3826496      2.0960595
 Leave Link  202 at Wed Sep 20 14:37:37 2023, MaxMem=    33554432 cpu:         0.0
 (Enter /mnt/storage/apps/eb/software/gaussian/09/l301.exe)
 Standard basis: 6-31G(d) (6D, 7F)
 Ernie: Thresh=  0.10000D-02 Tol=  0.10000D-05 Strict=F.
 There are   106 symmetry adapted cartesian basis functions of A   symmetry.
 There are   106 symmetry adapted basis functions of A   symmetry.
   106 basis functions,   200 primitive gaussians,   106 cartesian basis functions
    25 alpha electrons       25 beta electrons
       nuclear repulsion energy       267.2252475653 Hartrees.
 IExCor=    0 DFT=F Ex=HF Corr=None ExCW=0 ScaHFX=  1.000000
 ScaDFX=  1.000000  1.000000  1.000000  1.000000 ScalE2=  1.000000  1.000000
 IRadAn=      0 IRanWt=     -1 IRanGd=            0 ICorTp=0 IEmpDi=  4
 NAtoms=   14 NActive=   14 NUniq=   14 SFac= 1.00D+00 NAtFMM=   60 NAOKFM=F Big=F
 Integral buffers will be    131072 words long.
 Raffenetti 1 integral format.
 Two-electron integral symmetry is turned on.
 Leave Link  301 at Wed Sep 20 14:37:37 2023, MaxMem=    33554432 cpu:         0.0
 (Enter /mnt/storage/apps/eb/software/gaussian/09/l302.exe)
 NPDir=0 NMtPBC=     1 NCelOv=     1 NCel=       1 NClECP=     1 NCelD=      1
         NCelK=      1 NCelE2=     1 NClLst=     1 CellRange=     0.0.
 One-electron integrals computed using PRISM.
 NBasis=   106 RedAO= T EigKep=  3.15D-03  NBF=   106
 NBsUse=   106 1.00D-06 EigRej= -1.00D+00 NBFU=   106
 Leave Link  302 at Wed Sep 20 14:37:37 2023, MaxMem=    33554432 cpu:         0.1
 (Enter /mnt/storage/apps/eb/software/gaussian/09/l303.exe)
 DipDrv:  MaxL=1.
 Leave Link  303 at Wed Sep 20 14:37:37 2023, MaxMem=    33554432 cpu:         0.0
 (Enter /mnt/storage/apps/eb/software/gaussian/09/l401.exe)
 ExpMin= 1.61D-01 ExpMax= 5.48D+03 ExpMxC= 8.25D+02 IAcc=1 IRadAn=         1 AccDes= 0.00D+00
 Harris functional with IExCor=  205 and IRadAn=       1 diagonalized for initial guess.
 HarFok:  IExCor=  205 AccDes= 0.00D+00 IRadAn=         1 IDoV= 1 UseB2=F ITyADJ=14
 ICtDFT=  3500011 ScaDFX=  1.000000  1.000000  1.000000  1.000000
 FoFCou: FMM=F IPFlag=           0 FMFlag=      100000 FMFlg1=           0
         NFxFlg=           0 DoJE=T BraDBF=F KetDBF=T FulRan=T
         wScrn=  0.000000 ICntrl=     500 IOpCl=  0 I1Cent=   200000004 NGrid=           0
         NMat0=    1 NMatS0=      1 NMatT0=    0 NMatD0=    1 NMtDS0=    0 NMtDT0=    0
 Petite list used in FoFCou.
 Harris En= -343.191643476310    
 JPrj=0 DoOrth=F DoCkMO=F.
 Leave Link  401 at Wed Sep 20 14:37:37 2023, MaxMem=    33554432 cpu:         0.3
 (Enter /mnt/storage/apps/eb/software/gaussian/09/l508.exe)
 Direct SCF.
 Tight linear equation convergence will be used.
 RHF wavefunction.
 Quadratic Convergence SCF Method.
 Line search only if initial step raises energy.
 Integral symmetry usage will be decided dynamically.
 ReadGW:  IGet=1 IStart=         402 Next=         402 LGW=           0.
 Keep R1 ints in memory in canonical form, NReq=17057333.
 FoFCou: FMM=F IPFlag=           0 FMFlag=           0 FMFlg1=           0
         NFxFlg=           0 DoJE=F BraDBF=F KetDBF=F FulRan=T
         wScrn=  0.000000 ICntrl=     600 IOpCl=  0 I1Cent=           0 NGrid=           0
         NMat0=    1 NMatS0=   5671 NMatT0=    0 NMatD0=    1 NMtDS0=    0 NMtDT0=    0
 Symmetry not used in FoFCou.
 Iteration   1 EE= -342.539205310897                                    Grad=9.386D-01 Max rot=    7.9771 deg.
 Gradient too large for Newton-Raphson -- use scaled steepest descent instead.
 Alpha Gap=     0.560 HL deriv= 1.86D-02
     ILin= 1 X=0.000D+00 Y=-3.425392053109D+02 DE= 0.00D+00 F= -7.06D-01
     ILin= 2 X=3.000D-01 Y=-3.427046906483D+02 DE=-1.65D-01 F= -3.96D-01
     ILin= 3 X=5.000D-01 Y=-3.427630283593D+02 DE=-2.24D-01 F= -1.87D-01
     ILin= 4 X=9.000D-01 Y=-3.427536540898D+02 DE=-2.14D-01 F=  2.34D-01
     An  expanding polynomial of degree  4 produced  0.6780
 Iteration   2 EE= -342.779660122646     Delta-E=       -0.240454811749 Grad=3.001D-01 Max rot=    3.4619 deg.
 Gradient too large for Newton-Raphson -- use scaled steepest descent instead.
 Alpha Gap=     0.653 HL deriv= 5.75D-03
     ILin= 1 X=0.000D+00 Y=-3.427796601226D+02 DE= 0.00D+00 F= -2.84D-02
     ILin= 2 X=5.000D-01 Y=-3.427898602194D+02 DE=-1.02D-02 F= -1.24D-02
     ILin= 3 X=9.000D-01 Y=-3.427922965933D+02 DE=-1.26D-02 F=  2.46D-04
     Accept linear search using points  2 and  3.
     An  expanding polynomial of degree  3 produced  0.7704
 Iteration   3 EE= -342.792062792884     Delta-E=       -0.012402670238 Grad=8.316D-02 Max rot=    0.7689 deg.
 Gradient too large for Newton-Raphson -- use scaled steepest descent instead.
 Alpha Gap=     0.647 HL deriv= 9.68D-04
     ILin= 1 X=0.000D+00 Y=-3.427920627929D+02 DE= 0.00D+00 F= -3.33D-03
     ILin= 2 X=7.000D-01 Y=-3.427935171739D+02 DE=-1.45D-03 F= -8.29D-04
     Reject lnstep minimum 1.187D+00 FVal=-3.427939497192D+02 Lims=  0.00D+00  7.00D-01
     ILin= 3 X=1.400D+00 Y=-3.427932233646D+02 DE=-1.16D-03 F=  1.67D-03
     An  expanding polynomial of degree  3 produced  0.9324
 Iteration   4 EE= -342.793613443878     Delta-E=       -0.001550650995 Grad=2.358D-02 Max rot=    0.1347 deg.
 Gradient too large for Newton-Raphson -- use scaled steepest descent instead.
 Alpha Gap=     0.652 HL deriv= 8.80D-04
     ILin= 1 X=0.000D+00 Y=-3.427936134439D+02 DE= 0.00D+00 F= -5.98D-04
     ILin= 2 X=8.000D-01 Y=-3.427938220947D+02 DE=-2.09D-04 F=  7.66D-05
     Accept linear search using points  1 and  2.
     An  expanding polynomial of degree  2 produced  0.6577
 Iteration   5 EE= -342.793824451488     Delta-E=       -0.000211007609 Grad=7.856D-03 Max rot=    0.0439 deg.
 QCNR:  CnvC1=6.36D-09 CnvC2=6.36D-08
 LinEq1:  Iter=  0 NonCon=     1 RMS=8.59D-05 Max=9.12D-04 NDo=     1
 AX will form     1 AO Fock derivatives at one time.
 LinEq1:  Iter=  1 NonCon=     1 RMS=2.58D-05 Max=1.60D-04 NDo=     1
 LinEq1:  Iter=  2 NonCon=     1 RMS=5.36D-06 Max=5.35D-05 NDo=     1
 LinEq1:  Iter=  3 NonCon=     1 RMS=6.89D-07 Max=8.26D-06 NDo=     1
 LinEq1:  Iter=  4 NonCon=     1 RMS=1.91D-07 Max=1.34D-06 NDo=     1
 LinEq1:  Iter=  5 NonCon=     1 RMS=6.20D-08 Max=4.64D-07 NDo=     1
 LinEq1:  Iter=  6 NonCon=     1 RMS=1.53D-08 Max=9.83D-08 NDo=     1
 LinEq1:  Iter=  7 NonCon=     0 RMS=5.13D-09 Max=3.64D-08 NDo=     1
 Linear equations converged to 6.364D-09 6.364D-08 after     7 iterations.
 Angle between quadratic step and gradient=  37.55 degrees.
     ILin= 1 X=0.000D+00 Y=-3.427938244515D+02 DE= 0.00D+00 F= -9.70D-05
     ILin= 2 X=1.000D+00 Y=-3.427938729173D+02 DE=-4.85D-05 F=  3.53D-08
     Accept linear search using points  1 and  2.
     An  expanding polynomial of degree  2 produced  0.9996
     Minimum is close to point  2 DX= -3.64D-04 DF= -6.42D-12 DXR=  3.64D-04 DFR=  1.33D-07 which will be used.
 Iteration   6 EE= -342.793872917287     Delta-E=       -0.000048465799 Grad=6.267D-06 Max rot=    0.0000 deg.
 QCNR:  CnvC1=6.27D-11 CnvC2=6.27D-10
 LinEq1:  Iter=  0 NonCon=     1 RMS=8.89D-08 Max=8.95D-07 NDo=     1
 LinEq1:  Iter=  1 NonCon=     1 RMS=2.97D-08 Max=2.83D-07 NDo=     1
 LinEq1:  Iter=  2 NonCon=     1 RMS=3.89D-09 Max=3.36D-08 NDo=     1
 LinEq1:  Iter=  3 NonCon=     1 RMS=1.28D-09 Max=8.58D-09 NDo=     1
 LinEq1:  Iter=  4 NonCon=     1 RMS=4.03D-10 Max=3.22D-09 NDo=     1
 LinEq1:  Iter=  5 NonCon=     1 RMS=1.08D-10 Max=8.55D-10 NDo=     1
 LinEq1:  Iter=  6 NonCon=     0 RMS=2.70D-11 Max=1.75D-10 NDo=     1
 Linear equations converged to 6.267D-11 6.267D-10 after     6 iterations.
 Angle between quadratic step and gradient=  36.86 degrees.
     ILin= 1 X=0.000D+00 Y=-3.427938729173D+02 DE= 0.00D+00 F= -6.21D-11
     ILin= 2 X=1.000D+00 Y=-3.427938729173D+02 DE=-3.27D-11
 Iteration   7 EE= -342.793872917319     Delta-E=       -0.000000000033 Grad=3.212D-09 Max rot=    0.0000 deg.
 Rotation gradient small -- convergence achieved.
 SCF Done:  E(RHF) =  -342.793872917     a.u. after    7 cycles
            Convg  =    0.3212D-08                    28 Fock formations.
              S**2 =  0.0000                  -V/T =  2.0023
 Leave Link  508 at Wed Sep 20 14:37:39 2023, MaxMem=    33554432 cpu:         1.4
 (Enter /mnt/storage/apps/eb/software/gaussian/09/l601.exe)
 Copying SCF densities to generalized density rwf, IOpCl= 0 IROHF=0.

 **********************************************************************

            Population analysis using the SCF density.

 **********************************************************************

 Orbital symmetries:
       Occupied  (A) (A) (A) (A) (A) (A) (A) (A) (A) (A) (A) (A)
                 (A) (A) (A) (A) (A) (A) (A) (A) (A) (A) (A) (A)
                 (A)
       Virtual   (A) (A) (A) (A) (A) (A) (A) (A) (A) (A) (A) (A)
                 (A) (A) (A) (A) (A) (A) (A) (A) (A) (A) (A) (A)
                 (A) (A) (A) (A) (A) (A) (A) (A) (A) (A) (A) (A)
                 (A) (A) (A) (A) (A) (A) (A) (A) (A) (A) (A) (A)
                 (A) (A) (A) (A) (A) (A) (A) (A) (A) (A) (A) (A)
                 (A) (A) (A) (A) (A) (A) (A) (A) (A) (A) (A) (A)
                 (A) (A) (A) (A) (A) (A) (A) (A) (A)
 The electronic state is 1-A.
 Alpha  occ. eigenvalues --  -20.56691 -20.55506 -20.55271 -11.27740 -11.27265
 Alpha  occ. eigenvalues --  -11.26740  -1.38116  -1.34937  -1.33700  -1.02512
 Alpha  occ. eigenvalues --   -0.91129  -0.79982  -0.72582  -0.69111  -0.67681
 Alpha  occ. eigenvalues --   -0.63637  -0.61402  -0.58632  -0.57303  -0.51597
 Alpha  occ. eigenvalues --   -0.49721  -0.48542  -0.46000  -0.44423  -0.40988
 Alpha virt. eigenvalues --    0.20006   0.22944   0.23702   0.27516   0.30239
 Alpha virt. eigenvalues --    0.31611   0.32772   0.34894   0.38193   0.41075
 Alpha virt. eigenvalues --    0.43948   0.44639   0.50848   0.78614   0.79085
 Alpha virt. eigenvalues --    0.80078   0.82426   0.83278   0.91670   0.93021
 Alpha virt. eigenvalues --    0.93583   1.00236   1.03125   1.07324   1.07773
 Alpha virt. eigenvalues --    1.10567   1.13407   1.14955   1.15976   1.17212
 Alpha virt. eigenvalues --    1.19232   1.21848   1.26016   1.27623   1.32047
 Alpha virt. eigenvalues --    1.35828   1.37225   1.44202   1.47802   1.49319
 Alpha virt. eigenvalues --    1.54015   1.66636   1.68650   1.71972   1.76433
 Alpha virt. eigenvalues --    1.86938   1.90440   1.93285   1.98688   2.03950
 Alpha virt. eigenvalues --    2.06615   2.09898   2.13545   2.20038   2.27497
 Alpha virt. eigenvalues --    2.31871   2.38509   2.45179   2.46663   2.49888
 Alpha virt. eigenvalues --    2.52787   2.59830   2.62966   2.66419   2.71210
 Alpha virt. eigenvalues --    2.72491   2.82136   2.87053   2.92694   2.97233
 Alpha virt. eigenvalues --    3.01331   3.15272   3.19603   3.27164   3.28274
 Alpha virt. eigenvalues --    4.17506   4.18967   4.24029   4.69526   4.78415
 Alpha virt. eigenvalues --    4.98661
          Condensed to atoms (all electrons):
               1          2          3          4          5          6
     1  O    8.418082   0.203922  -0.065650  -0.001012  -0.005904   0.000006
     2  C    0.203922   4.881063   0.324681  -0.063454  -0.062501   0.003279
     3  C   -0.065650   0.324681   4.983497   0.174705   0.342820  -0.058948
     4  O   -0.001012  -0.063454   0.174705   8.470479  -0.060787   0.003922
     5  C   -0.005904  -0.062501   0.342820  -0.060787   4.822567   0.206313
     6  O    0.000006   0.003279  -0.058948   0.003922   0.206313   8.400875
     7  H    0.260299  -0.020748  -0.004569   0.006944   0.000263  -0.000012
     8  H   -0.041689   0.395540  -0.047506  -0.001784   0.005619  -0.000083
     9  H   -0.029163   0.388756  -0.047553   0.003719  -0.001124  -0.000031
    10  H    0.003374  -0.048267   0.397988  -0.032852  -0.034511   0.000430
    11  H    0.000234  -0.000226  -0.021708   0.254950   0.005879  -0.000348
    12  H    0.000480   0.003605  -0.062177   0.003311   0.402212  -0.039980
    13  H    0.008435  -0.004155  -0.038688  -0.000857   0.396956  -0.029330
    14  H    0.000023  -0.000081  -0.001791   0.002667  -0.022179   0.257301
               7          8          9         10         11         12
     1  O    0.260299  -0.041689  -0.029163   0.003374   0.000234   0.000480
     2  C   -0.020748   0.395540   0.388756  -0.048267  -0.000226   0.003605
     3  C   -0.004569  -0.047506  -0.047553   0.397988  -0.021708  -0.062177
     4  O    0.006944  -0.001784   0.003719  -0.032852   0.254950   0.003311
     5  C    0.000263   0.005619  -0.001124  -0.034511   0.005879   0.402212
     6  O   -0.000012  -0.000083  -0.000031   0.000430  -0.000348  -0.039980
     7  H    0.305129  -0.007559   0.004215   0.000071  -0.000079  -0.000019
     8  H   -0.007559   0.594416  -0.027373  -0.000665   0.002383  -0.000193
     9  H    0.004215  -0.027373   0.533088   0.002902  -0.000143   0.001056
    10  H    0.000071  -0.000665   0.002902   0.562821  -0.008552  -0.002982
    11  H   -0.000079   0.002383  -0.000143  -0.008552   0.329392  -0.000233
    12  H   -0.000019  -0.000193   0.001056  -0.002982  -0.000233   0.577132
    13  H   -0.000032   0.000135   0.000315   0.004115  -0.000156  -0.031553
    14  H   -0.000005   0.000005  -0.000001  -0.000187  -0.000071   0.004926
              13         14
     1  O    0.008435   0.000023
     2  C   -0.004155  -0.000081
     3  C   -0.038688  -0.001791
     4  O   -0.000857   0.002667
     5  C    0.396956  -0.022179
     6  O   -0.029330   0.257301
     7  H   -0.000032  -0.000005
     8  H    0.000135   0.000005
     9  H    0.000315  -0.000001
    10  H    0.004115  -0.000187
    11  H   -0.000156  -0.000071
    12  H   -0.031553   0.004926
    13  H    0.515913  -0.007007
    14  H   -0.007007   0.320980
 Mulliken charges:
               1
     1  O   -0.751438
     2  C   -0.001416
     3  C    0.124899
     4  O   -0.759952
     5  C    0.004377
     6  O   -0.743396
     7  H    0.456100
     8  H    0.128756
     9  H    0.171336
    10  H    0.156315
    11  H    0.438676
    12  H    0.144416
    13  H    0.185909
    14  H    0.445418
 Sum of Mulliken charges =   0.00000
 Mulliken charges with hydrogens summed into heavy atoms:
               1
     1  O   -0.295338
     2  C    0.298676
     3  C    0.281214
     4  O   -0.321276
     5  C    0.334702
     6  O   -0.297977
 Electronic spatial extent (au):  <R**2>=            625.4083
 Charge=              0.0000 electrons
 Dipole moment (field-independent basis, Debye):
    X=              1.1524    Y=              1.8392    Z=              0.5917  Tot=              2.2496
 Quadrupole moment (field-independent basis, Debye-Ang):
   XX=            -40.6069   YY=            -34.2655   ZZ=            -32.8089
   XY=              3.1898   XZ=              4.0670   YZ=              0.3020
 Traceless Quadrupole moment (field-independent basis, Debye-Ang):
   XX=             -4.7132   YY=              1.6283   ZZ=              3.0849
   XY=              3.1898   XZ=              4.0670   YZ=              0.3020
 Octapole moment (field-independent basis, Debye-Ang**2):
  XXX=              6.7358  YYY=             15.3919  ZZZ=             -9.0053  XYY=             -1.0132
  XXY=             12.2651  XXZ=            -14.4747  XZZ=             -2.2164  YZZ=              1.7267
  YYZ=              4.8887  XYZ=             -3.6585
 Hexadecapole moment (field-independent basis, Debye-Ang**3):
 XXXX=           -485.2363 YYYY=           -137.0582 ZZZZ=            -98.6610 XXXY=              3.2666
 XXXZ=             19.7099 YYYX=              2.7883 YYYZ=              6.5794 ZZZX=             -3.5422
 ZZZY=             -1.3146 XXYY=           -111.0854 XXZZ=            -73.9954 YYZZ=            -45.5001
 XXYZ=            -10.2160 YYXZ=              1.8218 ZZXY=              1.5218
 N-N= 2.672252475653D+02 E-N=-1.342806625392D+03  KE= 3.419925630790D+02
 No NMR shielding tensors so no spin-rotation constants.
 Leave Link  601 at Wed Sep 20 14:37:39 2023, MaxMem=    33554432 cpu:         0.1
 (Enter /mnt/storage/apps/eb/software/gaussian/09/l701.exe)
 Compute integral first derivatives.
 ... and contract with generalized density number  0.
 Leave Link  701 at Wed Sep 20 14:37:39 2023, MaxMem=    33554432 cpu:         0.1
 (Enter /mnt/storage/apps/eb/software/gaussian/09/l702.exe)
 L702 exits ... SP integral derivatives will be done elsewhere.
 Leave Link  702 at Wed Sep 20 14:37:39 2023, MaxMem=    33554432 cpu:         0.0
 (Enter /mnt/storage/apps/eb/software/gaussian/09/l703.exe)
 Compute integral first derivatives, UseDBF=F ICtDFT=           0.
 Integral derivatives from FoFJK, PRISM(SPDF).
 Calling FoFJK, ICntrl=      2127 FMM=F ISym2X=0 I1Cent= 0 IOpClX= 0 NMat=1 NMatS=1 NMatT=0.
 FoFJK:  IHMeth= 1 ICntrl=    2127 DoSepK=F KAlg= 0 I1Cent=   0 FoldK=F
 IRaf=         0 NMat=   1 IRICut=       1 DoRegI=T DoRafI=F ISym2E= 0.
 FoFCou: FMM=F IPFlag=           0 FMFlag=      100000 FMFlg1=         800
         NFxFlg=           0 DoJE=F BraDBF=F KetDBF=F FulRan=T
         wScrn=  0.000000 ICntrl=    2127 IOpCl=  0 I1Cent=           0 NGrid=           0
         NMat0=    1 NMatS0=      1 NMatT0=    0 NMatD0=    1 NMtDS0=    0 NMtDT0=    0
 Symmetry not used in FoFCou.
 Leave Link  703 at Wed Sep 20 14:37:40 2023, MaxMem=    33554432 cpu:         1.4
 (Enter /mnt/storage/apps/eb/software/gaussian/09/l716.exe)
 Dipole        = 4.53390418D-01 7.23584107D-01 2.32811067D-01
 ***** Axes restored to original set *****
 -------------------------------------------------------------------
 Center     Atomic                   Forces (Hartrees/Bohr)
 Number     Number              X              Y              Z
 -------------------------------------------------------------------
      1        8           0.019513950    0.015298607   -0.004790603
      2        6           0.033205642   -0.002455430    0.025018272
      3        6          -0.002031926    0.001579073    0.006604314
      4        8           0.003551361   -0.026798819    0.039579484
      5        6          -0.013628132   -0.020204385   -0.026158467
      6        8          -0.010767848    0.050295910    0.013089417
      7        1          -0.023253144   -0.023329140   -0.018111490
      8        1          -0.016014609   -0.007848603   -0.015106880
      9        1           0.002885834    0.013876762    0.002172184
     10        1           0.000846891    0.007379854   -0.006629693
     11        1          -0.004954856    0.029136808   -0.027665530
     12        1           0.008012708    0.016728225    0.015558269
     13        1          -0.001754605   -0.005090640    0.010693269
     14        1           0.004388733   -0.048568222   -0.014252545
 -------------------------------------------------------------------
 Cartesian Forces:  Max     0.050295910 RMS     0.019535488
 Leave Link  716 at Wed Sep 20 14:37:41 2023, MaxMem=    33554432 cpu:         0.0
 (Enter /mnt/storage/apps/eb/software/gaussian/09/l103.exe)

 GradGradGradGradGradGradGradGradGradGradGradGradGradGradGradGradGradGrad
 Berny optimization.
 FormGI is forming the generalized inverse of G from B-inverse, IUseBI=4.
 Internal  Forces:  Max     0.050408133 RMS     0.012168485
 Search for a local minimum.
 Step number   1 out of a maximum of  100
 All quantities printed in internal units (Hartrees-Bohrs-Radians)
 RMS Force = .12168D-01 SwitMx=.10000D-02 MixMth= 1
 Mixed Optimization -- RFO/linear search
 Second derivative matrix not updated -- first step.
 ITU=  0
     Eigenvalues ---    0.00644   0.00764   0.01513   0.01672   0.01794
     Eigenvalues ---    0.04393   0.05013   0.05176   0.05436   0.06237
     Eigenvalues ---    0.06304   0.07701   0.11430   0.11491   0.13784
     Eigenvalues ---    0.13903   0.16000   0.16000   0.16000   0.16538
     Eigenvalues ---    0.19222   0.21947   0.22044   0.30862   0.31430
     Eigenvalues ---    0.31719   0.32363   0.33677   0.33891   0.34258
     Eigenvalues ---    0.43448   0.45368   0.46925   0.48340   0.50222
     Eigenvalues ---    0.51576
 RFO step:  Lambda=-2.90687904D-02 EMin= 6.44079335D-03
 Linear search not attempted -- first point.
 Iteration  1 RMS(Cart)=  0.07491383 RMS(Int)=  0.00289793
 Iteration  2 RMS(Cart)=  0.00302121 RMS(Int)=  0.00116559
 Iteration  3 RMS(Cart)=  0.00000679 RMS(Int)=  0.00116558
 Iteration  4 RMS(Cart)=  0.00000002 RMS(Int)=  0.00116558
 ITry= 1 IFail=0 DXMaxC= 1.95D-01 DCOld= 1.00D+10 DXMaxT= 3.00D-01 DXLimC= 3.00D+00 Rises=F
 Variable       Old X    -DE/DX   Delta X   Delta X   Delta X     New X
                                 (Linear)    (Quad)   (Total)
    R1        2.64851   0.00005   0.00000   0.00009   0.00009   2.64861
    R2        1.85007  -0.03631   0.00000  -0.06664  -0.06664   1.78343
    R3        2.83485   0.02007   0.00000   0.05692   0.05692   2.89176
    R4        2.11360  -0.01816   0.00000  -0.05243  -0.05243   2.06117
    R5        2.07514  -0.01155   0.00000  -0.03139  -0.03139   2.04375
    R6        2.67121   0.00980   0.00000   0.02115   0.02115   2.69236
    R7        2.85200   0.00653   0.00000   0.01901   0.01901   2.87101
    R8        2.07879  -0.00902   0.00000  -0.02466  -0.02466   2.05413
    R9        1.86342  -0.03976   0.00000  -0.07484  -0.07484   1.78857
   R10        2.63102   0.00482   0.00000   0.00968   0.00968   2.64070
   R11        2.12978  -0.02416   0.00000  -0.07155  -0.07155   2.05822
   R12        2.06897  -0.01003   0.00000  -0.02698  -0.02698   2.04199
   R13        1.88279  -0.05041   0.00000  -0.09836  -0.09836   1.78442
    A1        1.96346  -0.01685   0.00000  -0.08910  -0.08910   1.87436
    A2        1.89479   0.01512   0.00000   0.06455   0.06176   1.95655
    A3        1.83851   0.00663   0.00000   0.09518   0.09155   1.93006
    A4        1.96081  -0.01475   0.00000  -0.10458  -0.10335   1.85746
    A5        1.86438  -0.00180   0.00000   0.01821   0.01341   1.87779
    A6        1.99107  -0.00212   0.00000  -0.02749  -0.02712   1.96395
    A7        1.90569  -0.00185   0.00000  -0.03026  -0.02863   1.87706
    A8        1.85128   0.00562   0.00000   0.04778   0.04751   1.89879
    A9        1.96997   0.00136   0.00000   0.00994   0.00925   1.97922
   A10        1.93894  -0.00211   0.00000  -0.02039  -0.02074   1.91820
   A11        1.87528  -0.00213   0.00000   0.00236   0.00155   1.87683
   A12        1.90876   0.00026   0.00000   0.00457   0.00468   1.91345
   A13        1.91671  -0.00274   0.00000  -0.04016  -0.04037   1.87634
   A14        1.84742   0.01412   0.00000   0.07471   0.07471   1.92213
   A15        1.91336   0.00807   0.00000   0.02991   0.02927   1.94263
   A16        1.87399   0.00283   0.00000   0.03120   0.03082   1.90481
   A17        1.96965  -0.00811   0.00000  -0.05223  -0.05208   1.91757
   A18        1.85928  -0.00221   0.00000   0.00626   0.00519   1.86447
   A19        1.98879  -0.00260   0.00000  -0.02433  -0.02447   1.96432
   A20        1.85073   0.00241   0.00000   0.01564   0.01622   1.86695
   A21        1.95540  -0.00972   0.00000  -0.05141  -0.05141   1.90399
    D1        1.38651   0.00135   0.00000   0.01033   0.01321   1.39972
    D2       -0.60527  -0.00666   0.00000  -0.08637  -0.09047  -0.69574
    D3       -2.67813  -0.00058   0.00000  -0.05246  -0.05123  -2.72936
    D4       -1.04716  -0.00707   0.00000  -0.08303  -0.08408  -1.13124
    D5        1.00178  -0.00541   0.00000  -0.04494  -0.04551   0.95626
    D6       -3.11970  -0.00961   0.00000  -0.10607  -0.10670   3.05678
    D7        0.92757   0.00684   0.00000   0.06647   0.06684   0.99441
    D8        2.97651   0.00850   0.00000   0.10456   0.10540   3.08192
    D9       -1.14496   0.00430   0.00000   0.04343   0.04421  -1.10075
   D10        3.03494   0.00194   0.00000   0.02418   0.02397   3.05891
   D11       -1.19930   0.00361   0.00000   0.06227   0.06254  -1.13677
   D12        0.96240  -0.00060   0.00000   0.00114   0.00135   0.96375
   D13       -1.63674   0.00057   0.00000   0.00385   0.00386  -1.63288
   D14        2.53523  -0.00294   0.00000  -0.03480  -0.03507   2.50016
   D15        0.45560   0.00142   0.00000   0.00936   0.00963   0.46523
   D16       -3.08166  -0.00224   0.00000  -0.03622  -0.03586  -3.11752
   D17        1.18839  -0.00532   0.00000  -0.07595  -0.07626   1.11213
   D18       -0.84470  -0.00551   0.00000  -0.08538  -0.08507  -0.92977
   D19       -1.04691   0.00407   0.00000   0.02926   0.02940  -1.01752
   D20       -3.06004   0.00098   0.00000  -0.01047  -0.01100  -3.07105
   D21        1.19005   0.00080   0.00000  -0.01990  -0.01982   1.17023
   D22        1.02762   0.00161   0.00000   0.01374   0.01397   1.04158
   D23       -0.98552  -0.00148   0.00000  -0.02599  -0.02643  -1.01195
   D24       -3.01860  -0.00166   0.00000  -0.03542  -0.03525  -3.05386
   D25        1.73528  -0.00631   0.00000  -0.08567  -0.08576   1.64952
   D26       -2.52542  -0.00012   0.00000  -0.03059  -0.03045  -2.55587
   D27       -0.49103  -0.00002   0.00000  -0.02084  -0.02089  -0.51192
         Item               Value     Threshold  Converged?
 Maximum Force            0.050408     0.000015     NO 
 RMS     Force            0.012168     0.000010     NO 
 Maximum Displacement     0.195474     0.000060     NO 
 RMS     Displacement     0.074071     0.000040     NO 
 Predicted change in Energy=-1.707346D-02
 Lowest energy point so far.  Saving SCF results.
 GradGradGradGradGradGradGradGradGradGradGradGradGradGradGradGradGradGrad

 Leave Link  103 at Wed Sep 20 14:37:41 2023, MaxMem=    33554432 cpu:         0.0
 (Enter /mnt/storage/apps/eb/software/gaussian/09/l202.exe)
                          Input orientation:                          
 ---------------------------------------------------------------------
 Center     Atomic      Atomic             Coordinates (Angstroms)
 Number     Number       Type             X           Y           Z
 ---------------------------------------------------------------------
      1          8           0        1.738233    0.389767   -1.022490
      2          6           0        1.165604   -0.733564   -0.410399
      3          6           0       -0.117994   -0.385258    0.346399
      4          8           0        0.207724    0.485160    1.426286
      5          6           0       -1.153070    0.319846   -0.513623
      6          8           0       -2.292578    0.644583    0.227177
      7          1           0        2.214994    0.860780   -0.358025
      8          1           0        1.860023   -1.176362    0.304716
      9          1           0        0.999851   -1.458502   -1.195665
     10          1           0       -0.576912   -1.291453    0.733397
     11          1           0        0.350493   -0.015631    2.216625
     12          1           0       -1.474540   -0.352009   -1.308323
     13          1           0       -0.708939    1.182076   -0.990013
     14          1           0       -2.212890    1.530567    0.543938
 ---------------------------------------------------------------------
                    Distance matrix (angstroms):
                    1          2          3          4          5
     1  O    0.000000
     2  C    1.401582   0.000000
     3  C    2.433126   1.530256   0.000000
     4  O    2.889301   2.403379   1.424737   0.000000
     5  C    2.936574   2.548838   1.519273   2.375360   0.000000
     6  O    4.227770   3.776879   2.409066   2.777551   1.397397
     7  H    0.943752   1.909422   2.737090   2.711824   3.414773
     8  H    2.056470   1.090724   2.130760   2.597819   3.462231
     9  H    1.997823   1.081505   2.186182   3.358558   2.874503
    10  H    3.357013   2.157746   1.086997   2.062063   2.117381
    11  H    3.547116   2.842725   1.963122   0.946472   3.134884
    12  H    3.309659   2.814643   2.139959   3.317974   1.089164
    13  H    2.572442   2.742178   2.142837   2.676652   1.080575
    14  H    4.400738   4.177471   2.845697   2.780429   1.925487
                    6          7          8          9         10
     6  O    0.000000
     7  H    4.550540   0.000000
     8  H    4.534970   2.171446   0.000000
     9  H    4.157828   2.749051   1.752325   0.000000
    10  H    2.635907   3.690264   2.477027   2.497072   0.000000
    11  H    3.373367   3.297466   2.698402   3.761285   2.165125
    12  H    2.005029   3.998323   3.794834   2.712864   2.420106
    13  H    2.068421   3.008659   3.719963   3.151970   3.017602
    14  H    0.944275   4.568184   4.896255   4.720430   3.267433
                   11         12         13         14
    11  H    0.000000
    12  H    3.983610   0.000000
    13  H    3.583214   1.743813   0.000000
    14  H    3.429218   2.742284   2.176309   0.000000
 Stoichiometry    C3H8O3
 Framework group  C1[X(C3H8O3)]
 Deg. of freedom    36
 Full point group                 C1      NOp   1
 RotChk:  IX=0 Diff= 4.34D-02
 Largest Abelian subgroup         C1      NOp   1
 Largest concise Abelian subgroup C1      NOp   1
                         Standard orientation:                         
 ---------------------------------------------------------------------
 Center     Atomic      Atomic             Coordinates (Angstroms)
 Number     Number       Type             X           Y           Z
 ---------------------------------------------------------------------
      1          8           0        1.899625   -0.633891   -0.628390
      2          6           0        1.437096   -0.141636    0.599691
      3          6           0       -0.024689    0.305143    0.527176
      4          8           0       -0.122402    1.412882   -0.363465
      5          6           0       -0.961625   -0.776495    0.016883
      6          8           0       -2.277592   -0.312945   -0.061037
      7          1           0        2.116169    0.110172   -1.167042
      8          1           0        2.029236    0.718104    0.915754
      9          1           0        1.594087   -0.929592    1.323661
     10          1           0       -0.371331    0.598810    1.514678
     11          1           0       -0.062609    2.224979    0.118959
     12          1           0       -0.961719   -1.609175    0.718968
     13          1           0       -0.600757   -1.159721   -0.926808
     14          1           0       -2.444817   -0.004019   -0.937539
 ---------------------------------------------------------------------
 Rotational constants (GHZ):      6.0273603      2.2949622      1.9835687
 Leave Link  202 at Wed Sep 20 14:37:41 2023, MaxMem=    33554432 cpu:         0.0
 (Enter /mnt/storage/apps/eb/software/gaussian/09/l301.exe)
 Standard basis: 6-31G(d) (6D, 7F)
 Ernie: Thresh=  0.10000D-02 Tol=  0.10000D-05 Strict=F.
 There are   106 symmetry adapted cartesian basis functions of A   symmetry.
 There are   106 symmetry adapted basis functions of A   symmetry.
   106 basis functions,   200 primitive gaussians,   106 cartesian basis functions
    25 alpha electrons       25 beta electrons
       nuclear repulsion energy       264.7823391201 Hartrees.
 IExCor=    0 DFT=F Ex=HF Corr=None ExCW=0 ScaHFX=  1.000000
 ScaDFX=  1.000000  1.000000  1.000000  1.000000 ScalE2=  1.000000  1.000000
 IRadAn=      0 IRanWt=     -1 IRanGd=            0 ICorTp=0 IEmpDi=  4
 NAtoms=   14 NActive=   14 NUniq=   14 SFac= 1.00D+00 NAtFMM=   60 NAOKFM=F Big=F
 Integral buffers will be    131072 words long.
 Raffenetti 1 integral format.
 Two-electron integral symmetry is turned on.
 Leave Link  301 at Wed Sep 20 14:37:41 2023, MaxMem=    33554432 cpu:         0.0
 (Enter /mnt/storage/apps/eb/software/gaussian/09/l302.exe)
 NPDir=0 NMtPBC=     1 NCelOv=     1 NCel=       1 NClECP=     1 NCelD=      1
         NCelK=      1 NCelE2=     1 NClLst=     1 CellRange=     0.0.
 One-electron integrals computed using PRISM.
 NBasis=   106 RedAO= T EigKep=  3.43D-03  NBF=   106
 NBsUse=   106 1.00D-06 EigRej= -1.00D+00 NBFU=   106
 Leave Link  302 at Wed Sep 20 14:37:41 2023, MaxMem=    33554432 cpu:         0.1
 (Enter /mnt/storage/apps/eb/software/gaussian/09/l303.exe)
 DipDrv:  MaxL=1.
 Leave Link  303 at Wed Sep 20 14:37:41 2023, MaxMem=    33554432 cpu:         0.0
 (Enter /mnt/storage/apps/eb/software/gaussian/09/l401.exe)
 Initial guess from the checkpoint file:  "/scratch/nca121/18446470/Gau-12939.chk"
 B after Tr=     0.000000    0.000000    0.000000
         Rot=    0.999801    0.012176    0.002104   -0.015686 Ang=   2.29 deg.
 Guess basis will be translated and rotated to current coordinates.
 JPrj=2 DoOrth=T DoCkMO=T.
 Generating alternative initial guess.
 ExpMin= 1.61D-01 ExpMax= 5.48D+03 ExpMxC= 8.25D+02 IAcc=1 IRadAn=         1 AccDes= 0.00D+00
 Harris functional with IExCor=  205 and IRadAn=       1 diagonalized for initial guess.
 HarFok:  IExCor=  205 AccDes= 0.00D+00 IRadAn=         1 IDoV= 1 UseB2=F ITyADJ=14
 ICtDFT=  3500011 ScaDFX=  1.000000  1.000000  1.000000  1.000000
 FoFCou: FMM=F IPFlag=           0 FMFlag=      100000 FMFlg1=           0
         NFxFlg=           0 DoJE=T BraDBF=F KetDBF=T FulRan=T
         wScrn=  0.000000 ICntrl=     500 IOpCl=  0 I1Cent=   200000004 NGrid=           0
         NMat0=    1 NMatS0=      1 NMatT0=    0 NMatD0=    1 NMtDS0=    0 NMtDT0=    0
 Petite list used in FoFCou.
 Harris En= -343.198508286415    
 Leave Link  401 at Wed Sep 20 14:37:41 2023, MaxMem=    33554432 cpu:         0.3
 (Enter /mnt/storage/apps/eb/software/gaussian/09/l508.exe)
 Direct SCF.
 Tight linear equation convergence will be used.
 RHF wavefunction.
 Quadratic Convergence SCF Method.
 Line search only if initial step raises energy.
 Integral symmetry usage will be decided dynamically.
 ReadGW:  IGet=1 IStart=         402 Next=         402 LGW=           0.
 Keep R1 ints in memory in canonical form, NReq=17057063.
 FoFCou: FMM=F IPFlag=           0 FMFlag=           0 FMFlg1=           0
         NFxFlg=           0 DoJE=F BraDBF=F KetDBF=F FulRan=T
         wScrn=  0.000000 ICntrl=     600 IOpCl=  0 I1Cent=           0 NGrid=           0
         NMat0=    1 NMatS0=   5671 NMatT0=    0 NMatD0=    1 NMtDS0=    0 NMtDT0=    0
 Symmetry not used in FoFCou.
 Iteration   1 EE= -342.798524222428                                    Grad=1.175D-01 Max rot=    0.5009 deg.
 Gradient too large for Newton-Raphson -- use scaled steepest descent instead.
 Alpha Gap=     1.837 HL deriv= 1.94D-03
     ILin= 1 X=0.000D+00 Y=-3.427985242224D+02 DE= 0.00D+00 F= -1.15D-02
     ILin= 2 X=3.000D-01 Y=-3.428015527319D+02 DE=-3.03D-03 F= -8.71D-03
     ILin= 3 X=6.000D-01 Y=-3.428037492956D+02 DE=-5.23D-03 F= -5.94D-03
     ILin= 4 X=1.200D+00 Y=-3.428056472572D+02 DE=-7.12D-03 F= -3.92D-04
     Reject lnstep minimum 1.522D+00 FVal=-3.428058124777D+02 Lims=  6.00D-01  1.20D+00
     ILin= 5 X=2.400D+00 Y=-3.427994691693D+02 DE=-9.45D-04 F=  1.07D-02
     An  expanding polynomial of degree  5 produced  1.2424
     Minimum is close to point  4 DX=  4.24D-02 DF= -8.30D-06 DXR=  3.41D-02 DFR=  1.16D-03 which will be used.
 Iteration   2 EE= -342.805647257221     Delta-E=       -0.007123034793 Grad=5.925D-02 Max rot=    0.3316 deg.
 Gradient too large for Newton-Raphson -- use scaled steepest descent instead.
 Alpha Gap=     1.838 HL deriv= 6.42D-04
     ILin= 1 X=0.000D+00 Y=-3.428056472572D+02 DE= 0.00D+00 F= -2.86D-03
     ILin= 2 X=6.000D-01 Y=-3.428068500632D+02 DE=-1.20D-03 F= -1.15D-03
     ILin= 3 X=1.200D+00 Y=-3.428070256706D+02 DE=-1.38D-03 F=  5.64D-04
     Accept linear search using points  2 and  3.
     An  expanding polynomial of degree  3 produced  0.9429
 Iteration   3 EE= -342.807076224396     Delta-E=       -0.001428967175 Grad=3.516D-02 Max rot=    0.1937 deg.
 Gradient too large for Newton-Raphson -- use scaled steepest descent instead.
 Alpha Gap=     1.838 HL deriv= 1.10D-03
     ILin= 1 X=0.000D+00 Y=-3.428070762244D+02 DE= 0.00D+00 F= -1.07D-03
     ILin= 2 X=1.100D+00 Y=-3.428076169233D+02 DE=-5.41D-04 F=  8.87D-05
     Accept linear search using points  1 and  2.
     An  expanding polynomial of degree  2 produced  1.0326
     Minimum is close to point  2 DX= -6.74D-02 DF= -2.70D-06 DXR=  6.53D-02 DFR=  5.00D-03 which will be used.
 Iteration   4 EE= -342.807616923316     Delta-E=       -0.000540698920 Grad=3.100D-02 Max rot=    0.1335 deg.
 Gradient too large for Newton-Raphson -- use scaled steepest descent instead.
 Alpha Gap=     1.838 HL deriv= 1.03D-04
     ILin= 1 X=0.000D+00 Y=-3.428076169233D+02 DE= 0.00D+00 F= -7.94D-04
     ILin= 2 X=1.000D+00 Y=-3.428078639041D+02 DE=-2.47D-04 F=  3.00D-04
     Accept linear search using points  1 and  2.
     An  expanding polynomial of degree  2 produced  0.7256
 Iteration   5 EE= -342.807905101439     Delta-E=       -0.000288178123 Grad=1.720D-02 Max rot=    0.1030 deg.
 Gradient too large for Newton-Raphson -- use scaled steepest descent instead.
 Alpha Gap=     1.838 HL deriv= 5.65D-04
     ILin= 1 X=0.000D+00 Y=-3.428079051014D+02 DE= 0.00D+00 F= -2.61D-04
     ILin= 2 X=9.000D-01 Y=-3.428080469189D+02 DE=-1.42D-04 F= -5.43D-05
     Reject lnstep minimum 1.562D+00 FVal=-3.428080631760D+02 Lims=  0.00D+00  9.00D-01
     ILin= 3 X=1.700D+00 Y=-3.428080169912D+02 DE=-1.12D-04 F=  1.29D-04
     An  expanding polynomial of degree  3 produced  1.1369
 Iteration   6 EE= -342.808053356902     Delta-E=       -0.000148255464 Grad=1.655D-02 Max rot=    0.0723 deg.
 Gradient too large for Newton-Raphson -- use scaled steepest descent instead.
 Alpha Gap=     1.838 HL deriv= 1.64D-04
     ILin= 1 X=0.000D+00 Y=-3.428080533569D+02 DE= 0.00D+00 F= -2.32D-04
     ILin= 2 X=9.000D-01 Y=-3.428081302604D+02 DE=-7.69D-05 F=  6.11D-05
     Accept linear search using points  1 and  2.
     An  expanding polynomial of degree  2 produced  0.6840
 Iteration   7 EE= -342.808135867947     Delta-E=       -0.000082511045 Grad=9.418D-03 Max rot=    0.0592 deg.
 QCNR:  CnvC1=6.36D-09 CnvC2=6.36D-08
 LinEq1:  Iter=  0 NonCon=     1 RMS=1.45D-04 Max=1.82D-03 NDo=     1
 AX will form     1 AO Fock derivatives at one time.
 LinEq1:  Iter=  1 NonCon=     1 RMS=1.65D-05 Max=1.33D-04 NDo=     1
 LinEq1:  Iter=  2 NonCon=     1 RMS=6.14D-06 Max=5.37D-05 NDo=     1
 LinEq1:  Iter=  3 NonCon=     1 RMS=1.59D-06 Max=1.52D-05 NDo=     1
 LinEq1:  Iter=  4 NonCon=     1 RMS=6.07D-07 Max=5.41D-06 NDo=     1
 LinEq1:  Iter=  5 NonCon=     1 RMS=1.46D-07 Max=1.14D-06 NDo=     1
 LinEq1:  Iter=  6 NonCon=     1 RMS=2.94D-08 Max=2.34D-07 NDo=     1
 LinEq1:  Iter=  7 NonCon=     1 RMS=8.62D-09 Max=6.22D-08 NDo=     1
 LinEq1:  Iter=  8 NonCon=     0 RMS=2.47D-09 Max=2.20D-08 NDo=     1
 Linear equations converged to 6.364D-09 6.364D-08 after     8 iterations.
 Angle between quadratic step and gradient=  31.57 degrees.
     ILin= 1 X=0.000D+00 Y=-3.428081358679D+02 DE= 0.00D+00 F= -2.39D-04
     ILin= 2 X=1.000D+00 Y=-3.428082556253D+02 DE=-1.20D-04 F= -9.71D-08
     Reject lnstep minimum 1.000D+00 FVal=-3.428082556253D+02 Lims=  0.00D+00  1.00D+00
     ILin= 3 X=2.000D+00 Y=-3.428081361286D+02 DE=-2.61D-07 F=  2.39D-04
     An  expanding polynomial of degree  3 produced  1.0005
     Minimum is close to point  2 DX=  5.45D-04 DF= -3.55D-11 DXR=  5.44D-04 DFR=  2.97D-07 which will be used.
 Iteration   8 EE= -342.808255625298     Delta-E=       -0.000119757351 Grad=2.343D-05 Max rot=    0.0001 deg.
 QCNR:  CnvC1=2.34D-10 CnvC2=2.34D-09
 LinEq1:  Iter=  0 NonCon=     1 RMS=2.57D-07 Max=2.16D-06 NDo=     1
 LinEq1:  Iter=  1 NonCon=     1 RMS=9.09D-08 Max=1.09D-06 NDo=     1
 LinEq1:  Iter=  2 NonCon=     1 RMS=2.12D-08 Max=1.78D-07 NDo=     1
 LinEq1:  Iter=  3 NonCon=     1 RMS=6.91D-09 Max=6.05D-08 NDo=     1
 LinEq1:  Iter=  4 NonCon=     1 RMS=1.45D-09 Max=1.07D-08 NDo=     1
 LinEq1:  Iter=  5 NonCon=     1 RMS=3.86D-10 Max=2.59D-09 NDo=     1
 LinEq1:  Iter=  6 NonCon=     0 RMS=1.30D-10 Max=8.32D-10 NDo=     1
 Linear equations converged to 2.343D-10 2.343D-09 after     6 iterations.
 Angle between quadratic step and gradient=  38.62 degrees.
     ILin= 1 X=0.000D+00 Y=-3.428082556253D+02 DE= 0.00D+00 F= -5.67D-10
     ILin= 2 X=1.000D+00 Y=-3.428082556256D+02 DE=-2.89D-10
 Iteration   9 EE= -342.808255625588     Delta-E=       -0.000000000289 Grad=1.587D-08 Max rot=    0.0000 deg.
 Rotation gradient small -- convergence achieved.
 SCF Done:  E(RHF) =  -342.808255626     a.u. after    9 cycles
            Convg  =    0.1587D-07                    33 Fock formations.
              S**2 =  0.0000                  -V/T =  2.0016
 Leave Link  508 at Wed Sep 20 14:37:43 2023, MaxMem=    33554432 cpu:         1.7
 (Enter /mnt/storage/apps/eb/software/gaussian/09/l701.exe)
 Compute integral first derivatives.
 ... and contract with generalized density number  0.
 Leave Link  701 at Wed Sep 20 14:37:43 2023, MaxMem=    33554432 cpu:         0.1
 (Enter /mnt/storage/apps/eb/software/gaussian/09/l702.exe)
 L702 exits ... SP integral derivatives will be done elsewhere.
 Leave Link  702 at Wed Sep 20 14:37:43 2023, MaxMem=    33554432 cpu:         0.0
 (Enter /mnt/storage/apps/eb/software/gaussian/09/l703.exe)
 Compute integral first derivatives, UseDBF=F ICtDFT=           0.
 Integral derivatives from FoFJK, PRISM(SPDF).
 Calling FoFJK, ICntrl=      2127 FMM=F ISym2X=0 I1Cent= 0 IOpClX= 0 NMat=1 NMatS=1 NMatT=0.
 FoFJK:  IHMeth= 1 ICntrl=    2127 DoSepK=F KAlg= 0 I1Cent=   0 FoldK=F
 IRaf=         0 NMat=   1 IRICut=       1 DoRegI=T DoRafI=F ISym2E= 0.
 FoFCou: FMM=F IPFlag=           0 FMFlag=      100000 FMFlg1=         800
         NFxFlg=           0 DoJE=F BraDBF=F KetDBF=F FulRan=T
         wScrn=  0.000000 ICntrl=    2127 IOpCl=  0 I1Cent=           0 NGrid=           0
         NMat0=    1 NMatS0=      1 NMatT0=    0 NMatD0=    1 NMtDS0=    0 NMtDT0=    0
 Symmetry not used in FoFCou.
 Leave Link  703 at Wed Sep 20 14:37:44 2023, MaxMem=    33554432 cpu:         1.7
 (Enter /mnt/storage/apps/eb/software/gaussian/09/l716.exe)
 Dipole        = 4.75219408D-01 7.96987681D-01 2.44218326D-01
 ***** Axes restored to original set *****
 -------------------------------------------------------------------
 Center     Atomic                   Forces (Hartrees/Bohr)
 Number     Number              X              Y              Z
 -------------------------------------------------------------------
      1        8           0.001725476   -0.004152581    0.001477916
      2        6          -0.001628306   -0.000021755    0.003293701
      3        6           0.002704873    0.004059759    0.004399680
      4        8           0.000247387   -0.001903683   -0.006455589
      5        6          -0.000279808   -0.006849697   -0.005842376
      6        8          -0.002593541    0.001489719   -0.002802619
      7        1          -0.000345624    0.006309164    0.001374270
      8        1          -0.000330846   -0.000794438   -0.002659592
      9        1          -0.004309637   -0.001210123    0.000151935
     10        1           0.001620427   -0.000842280    0.000357195
     11        1          -0.000707171   -0.000074503   -0.000898055
     12        1           0.002435481    0.000899263    0.002137445
     13        1          -0.000096244    0.003289141    0.001403389
     14        1           0.001557534   -0.000197988    0.004062701
 -------------------------------------------------------------------
 Cartesian Forces:  Max     0.006849697 RMS     0.002844757
 Leave Link  716 at Wed Sep 20 14:37:45 2023, MaxMem=    33554432 cpu:         0.0
 (Enter /mnt/storage/apps/eb/software/gaussian/09/l103.exe)

 GradGradGradGradGradGradGradGradGradGradGradGradGradGradGradGradGradGrad
 Berny optimization.
 Using GEDIIS/GDIIS optimizer.
 FormGI is forming the generalized inverse of G from B-inverse, IUseBI=4.
 Internal  Forces:  Max     0.006887385 RMS     0.002059581
 Search for a local minimum.
 Step number   2 out of a maximum of  100
 All quantities printed in internal units (Hartrees-Bohrs-Radians)
 RMS Force = .20596D-02 SwitMx=.10000D-02 MixMth= 1
 Mixed Optimization -- RFO/linear search
 Update second derivatives using D2CorX and points    1    2
 DE= -1.44D-02 DEPred=-1.71D-02 R= 8.42D-01
 TightC=F SS=  1.41D+00  RLast= 4.08D-01 DXNew= 5.0454D-01 1.2227D+00
 Trust test= 8.42D-01 RLast= 4.08D-01 DXMaxT set to 5.05D-01
 ITU=  1  0
 Use linear search instead of GDIIS.
     Eigenvalues ---    0.00643   0.00764   0.01512   0.01653   0.01778
     Eigenvalues ---    0.04566   0.05059   0.05141   0.05548   0.06096
     Eigenvalues ---    0.06215   0.07699   0.11604   0.11768   0.13939
     Eigenvalues ---    0.14195   0.15940   0.16000   0.16841   0.17129
     Eigenvalues ---    0.19626   0.22009   0.22655   0.30189   0.31443
     Eigenvalues ---    0.31567   0.33058   0.33690   0.34006   0.34578
     Eigenvalues ---    0.43611   0.45351   0.46768   0.48461   0.49779
     Eigenvalues ---    0.52535
 RFO step:  Lambda=-3.32682011D-03 EMin= 6.42878168D-03
 Quartic linear search produced a step of -0.01908.
 Iteration  1 RMS(Cart)=  0.05714698 RMS(Int)=  0.00279710
 Iteration  2 RMS(Cart)=  0.00275872 RMS(Int)=  0.00008258
 Iteration  3 RMS(Cart)=  0.00000963 RMS(Int)=  0.00008234
 Iteration  4 RMS(Cart)=  0.00000000 RMS(Int)=  0.00008234
 ITry= 1 IFail=0 DXMaxC= 1.86D-01 DCOld= 1.00D+10 DXMaxT= 5.05D-01 DXLimC= 3.00D+00 Rises=F
 Variable       Old X    -DE/DX   Delta X   Delta X   Delta X     New X
                                 (Linear)    (Quad)   (Total)
    R1        2.64861   0.00105   0.00000   0.00224   0.00224   2.65084
    R2        1.78343   0.00394   0.00127   0.00227   0.00354   1.78697
    R3        2.89176  -0.00593  -0.00109  -0.01324  -0.01433   2.87744
    R4        2.06117  -0.00163   0.00100  -0.00903  -0.00803   2.05314
    R5        2.04375   0.00136   0.00060   0.00144   0.00204   2.04579
    R6        2.69236  -0.00689  -0.00040  -0.01369  -0.01409   2.67827
    R7        2.87101  -0.00074  -0.00036  -0.00080  -0.00116   2.86985
    R8        2.05413   0.00015   0.00047  -0.00150  -0.00103   2.05310
    R9        1.78857  -0.00082   0.00143  -0.00734  -0.00591   1.78267
   R10        2.64070   0.00181  -0.00018   0.00448   0.00430   2.64500
   R11        2.05822  -0.00283   0.00137  -0.01441  -0.01304   2.04518
   R12        2.04199   0.00197   0.00051   0.00344   0.00396   2.04595
   R13        1.78442   0.00131   0.00188  -0.00496  -0.00308   1.78134
    A1        1.87436   0.00586   0.00170   0.02787   0.02957   1.90393
    A2        1.95655  -0.00211  -0.00118  -0.00374  -0.00496   1.95160
    A3        1.93006   0.00011  -0.00175   0.01162   0.00988   1.93994
    A4        1.85746   0.00329   0.00197   0.01106   0.01282   1.87028
    A5        1.87779   0.00203  -0.00026   0.01390   0.01374   1.89153
    A6        1.96395  -0.00338   0.00052  -0.03046  -0.02995   1.93400
    A7        1.87706   0.00009   0.00055  -0.00226  -0.00173   1.87533
    A8        1.89879   0.00033  -0.00091   0.00096   0.00003   1.89882
    A9        1.97922  -0.00028  -0.00018  -0.00504  -0.00522   1.97400
   A10        1.91820  -0.00132   0.00040  -0.01456  -0.01413   1.90407
   A11        1.87683  -0.00092  -0.00003  -0.00645  -0.00650   1.87033
   A12        1.91345   0.00090  -0.00009   0.01572   0.01563   1.92908
   A13        1.87634   0.00135   0.00077   0.01049   0.01122   1.88756
   A14        1.92213  -0.00116  -0.00143  -0.00095  -0.00237   1.91976
   A15        1.94263  -0.00173  -0.00056  -0.00827  -0.00902   1.93361
   A16        1.90481   0.00033  -0.00059   0.01006   0.00951   1.91432
   A17        1.91757  -0.00041   0.00099  -0.01423  -0.01349   1.90408
   A18        1.86447   0.00140  -0.00010   0.01591   0.01587   1.88034
   A19        1.96432  -0.00025   0.00047  -0.01601  -0.01586   1.94846
   A20        1.86695   0.00084  -0.00031   0.01534   0.01512   1.88207
   A21        1.90399   0.00077   0.00098   0.00052   0.00151   1.90549
    D1        1.39972  -0.00073  -0.00025  -0.09435  -0.09459   1.30512
    D2       -0.69574  -0.00197   0.00173  -0.11747  -0.11562  -0.81136
    D3       -2.72936  -0.00400   0.00098  -0.12707  -0.12623  -2.85558
    D4       -1.13124   0.00089   0.00160   0.02382   0.02548  -1.10576
    D5        0.95626  -0.00022   0.00087   0.01313   0.01404   0.97030
    D6        3.05678   0.00038   0.00204   0.01278   0.01490   3.07168
    D7        0.99441   0.00108  -0.00128   0.04535   0.04409   1.03850
    D8        3.08192  -0.00003  -0.00201   0.03466   0.03264   3.11456
    D9       -1.10075   0.00057  -0.00084   0.03431   0.03350  -1.06725
   D10        3.05891   0.00053  -0.00046   0.03372   0.03319   3.09210
   D11       -1.13677  -0.00059  -0.00119   0.02303   0.02174  -1.11502
   D12        0.96375   0.00002  -0.00003   0.02268   0.02261   0.98636
   D13       -1.63288  -0.00021  -0.00007  -0.01545  -0.01552  -1.64840
   D14        2.50016   0.00049   0.00067  -0.00595  -0.00527   2.49489
   D15        0.46523  -0.00108  -0.00018  -0.02317  -0.02336   0.44187
   D16       -3.11752  -0.00013   0.00068  -0.07469  -0.07411   3.09156
   D17        1.11213  -0.00102   0.00145  -0.09555  -0.09413   1.01801
   D18       -0.92977  -0.00199   0.00162  -0.11178  -0.11011  -1.03988
   D19       -1.01752  -0.00052  -0.00056  -0.08102  -0.08166  -1.09917
   D20       -3.07105  -0.00141   0.00021  -0.10189  -0.10168   3.11046
   D21        1.17023  -0.00238   0.00038  -0.11812  -0.11766   1.05257
   D22        1.04158   0.00076  -0.00027  -0.06046  -0.06079   0.98079
   D23       -1.01195  -0.00013   0.00050  -0.08133  -0.08081  -1.09276
   D24       -3.05386  -0.00110   0.00067  -0.09756  -0.09679   3.13254
   D25        1.64952  -0.00310   0.00164  -0.12922  -0.12748   1.52204
   D26       -2.55587  -0.00281   0.00058  -0.11191  -0.11129  -2.66716
   D27       -0.51192  -0.00106   0.00040  -0.09222  -0.09196  -0.60389
         Item               Value     Threshold  Converged?
 Maximum Force            0.006887     0.000015     NO 
 RMS     Force            0.002060     0.000010     NO 
 Maximum Displacement     0.185818     0.000060     NO 
 RMS     Displacement     0.057712     0.000040     NO 
 Predicted change in Energy=-1.939440D-03
 Lowest energy point so far.  Saving SCF results.
 GradGradGradGradGradGradGradGradGradGradGradGradGradGradGradGradGradGrad

 Leave Link  103 at Wed Sep 20 14:37:45 2023, MaxMem=    33554432 cpu:         0.0
 (Enter /mnt/storage/apps/eb/software/gaussian/09/l202.exe)
                          Input orientation:                          
 ---------------------------------------------------------------------
 Center     Atomic      Atomic             Coordinates (Angstroms)
 Number     Number       Type             X           Y           Z
 ---------------------------------------------------------------------
      1          8           0        1.749840    0.352968   -1.022066
      2          6           0        1.155593   -0.755343   -0.400562
      3          6           0       -0.114074   -0.371529    0.347213
      4          8           0        0.224368    0.524850    1.391553
      5          6           0       -1.134572    0.329697   -0.532096
      6          8           0       -2.305040    0.601965    0.185506
      7          1           0        2.174003    0.885113   -0.365475
      8          1           0        1.838873   -1.223632    0.302475
      9          1           0        0.941135   -1.479531   -1.176157
     10          1           0       -0.574491   -1.269378    0.750034
     11          1           0        0.351845    0.049247    2.196198
     12          1           0       -1.399249   -0.309596   -1.364288
     13          1           0       -0.693980    1.232932   -0.934859
     14          1           0       -2.214251    1.432236    0.622524
 ---------------------------------------------------------------------
                    Distance matrix (angstroms):
                    1          2          3          4          5
     1  O    0.000000
     2  C    1.402765   0.000000
     3  C    2.423633   1.522674   0.000000
     4  O    2.860448   2.391182   1.417281   0.000000
     5  C    2.925823   2.537611   1.518657   2.363308   0.000000
     6  O    4.238193   3.763210   2.402951   2.803285   1.399671
     7  H    0.945624   1.931188   2.705988   2.649153   3.359005
     8  H    2.061068   1.086474   2.131216   2.617233   3.456980
     9  H    2.008930   1.082583   2.159117   3.335330   2.827839
    10  H    3.342882   2.140397   1.086454   2.066150   2.124757
    11  H    3.521911   2.834879   1.952659   0.943346   3.119563
    12  H    3.236181   2.766709   2.141203   3.305616   1.082263
    13  H    2.598884   2.767604   2.134080   2.599411   1.082669
    14  H    4.425326   4.145849   2.782105   2.713230   1.927290
                    6          7          8          9         10
     6  O    0.000000
     7  H    4.521679   0.000000
     8  H    4.529736   2.237247   0.000000
     9  H    4.089548   2.787241   1.748648   0.000000
    10  H    2.610636   3.666117   2.454940   2.459979   0.000000
    11  H    3.377488   3.252860   2.723538   3.749293   2.165240
    12  H    2.013272   3.897832   3.754863   2.623268   2.464096
    13  H    2.061274   2.944572   3.739124   3.176362   3.019056
    14  H    0.942644   4.531254   4.856324   4.655115   3.162877
                   11         12         13         14
    11  H    0.000000
    12  H    3.983988   0.000000
    13  H    3.506904   1.749630   0.000000
    14  H    3.312697   2.765073   2.185495   0.000000
 Stoichiometry    C3H8O3
 Framework group  C1[X(C3H8O3)]
 Deg. of freedom    36
 Full point group                 C1      NOp   1
 RotChk:  IX=0 Diff= 5.86D-02
 Largest Abelian subgroup         C1      NOp   1
 Largest concise Abelian subgroup C1      NOp   1
                         Standard orientation:                         
 ---------------------------------------------------------------------
 Center     Atomic      Atomic             Coordinates (Angstroms)
 Number     Number       Type             X           Y           Z
 ---------------------------------------------------------------------
      1          8           0        1.905944   -0.613123   -0.621406
      2          6           0        1.420645   -0.161767    0.614924
      3          6           0       -0.028458    0.296287    0.520986
      4          8           0       -0.099898    1.408625   -0.354391
      5          6           0       -0.955900   -0.770737   -0.033659
      6          8           0       -2.281910   -0.322683   -0.038482
      7          1           0        2.069590    0.132072   -1.180073
      8          1           0        2.017165    0.664151    0.992349
      9          1           0        1.520404   -0.981004    1.315556
     10          1           0       -0.380175    0.568383    1.512268
     11          1           0       -0.055805    2.211127    0.139520
     12          1           0       -0.908755   -1.654391    0.589419
     13          1           0       -0.624230   -1.047024   -1.026550
     14          1           0       -2.449007    0.141433   -0.841759
 ---------------------------------------------------------------------
 Rotational constants (GHZ):      6.0897476      2.3024910      1.9941054
 Leave Link  202 at Wed Sep 20 14:37:45 2023, MaxMem=    33554432 cpu:         0.0
 (Enter /mnt/storage/apps/eb/software/gaussian/09/l301.exe)
 Standard basis: 6-31G(d) (6D, 7F)
 Ernie: Thresh=  0.10000D-02 Tol=  0.10000D-05 Strict=F.
 There are   106 symmetry adapted cartesian basis functions of A   symmetry.
 There are   106 symmetry adapted basis functions of A   symmetry.
   106 basis functions,   200 primitive gaussians,   106 cartesian basis functions
    25 alpha electrons       25 beta electrons
       nuclear repulsion energy       265.4827384930 Hartrees.
 IExCor=    0 DFT=F Ex=HF Corr=None ExCW=0 ScaHFX=  1.000000
 ScaDFX=  1.000000  1.000000  1.000000  1.000000 ScalE2=  1.000000  1.000000
 IRadAn=      0 IRanWt=     -1 IRanGd=            0 ICorTp=0 IEmpDi=  4
 NAtoms=   14 NActive=   14 NUniq=   14 SFac= 1.00D+00 NAtFMM=   60 NAOKFM=F Big=F
 Integral buffers will be    131072 words long.
 Raffenetti 1 integral format.
 Two-electron integral symmetry is turned on.
 Leave Link  301 at Wed Sep 20 14:37:45 2023, MaxMem=    33554432 cpu:         0.0
 (Enter /mnt/storage/apps/eb/software/gaussian/09/l302.exe)
 NPDir=0 NMtPBC=     1 NCelOv=     1 NCel=       1 NClECP=     1 NCelD=      1
         NCelK=      1 NCelE2=     1 NClLst=     1 CellRange=     0.0.
 One-electron integrals computed using PRISM.
 NBasis=   106 RedAO= T EigKep=  3.38D-03  NBF=   106
 NBsUse=   106 1.00D-06 EigRej= -1.00D+00 NBFU=   106
 Leave Link  302 at Wed Sep 20 14:37:45 2023, MaxMem=    33554432 cpu:         0.1
 (Enter /mnt/storage/apps/eb/software/gaussian/09/l303.exe)
 DipDrv:  MaxL=1.
 Leave Link  303 at Wed Sep 20 14:37:45 2023, MaxMem=    33554432 cpu:         0.0
 (Enter /mnt/storage/apps/eb/software/gaussian/09/l401.exe)
 Initial guess from the checkpoint file:  "/scratch/nca121/18446470/Gau-12939.chk"
 B after Tr=     0.000000    0.000000    0.000000
         Rot=    0.999917   -0.012719    0.001395    0.001560 Ang=  -1.48 deg.
 Guess basis will be translated and rotated to current coordinates.
 JPrj=2 DoOrth=T DoCkMO=T.
 Generating alternative initial guess.
 ExpMin= 1.61D-01 ExpMax= 5.48D+03 ExpMxC= 8.25D+02 IAcc=1 IRadAn=         1 AccDes= 0.00D+00
 Harris functional with IExCor=  205 and IRadAn=       1 diagonalized for initial guess.
 HarFok:  IExCor=  205 AccDes= 0.00D+00 IRadAn=         1 IDoV= 1 UseB2=F ITyADJ=14
 ICtDFT=  3500011 ScaDFX=  1.000000  1.000000  1.000000  1.000000
 FoFCou: FMM=F IPFlag=           0 FMFlag=      100000 FMFlg1=           0
         NFxFlg=           0 DoJE=T BraDBF=F KetDBF=T FulRan=T
         wScrn=  0.000000 ICntrl=     500 IOpCl=  0 I1Cent=   200000004 NGrid=           0
         NMat0=    1 NMatS0=      1 NMatT0=    0 NMatD0=    1 NMtDS0=    0 NMtDT0=    0
 Petite list used in FoFCou.
 Harris En= -343.200880533751    
 Leave Link  401 at Wed Sep 20 14:37:45 2023, MaxMem=    33554432 cpu:         0.4
 (Enter /mnt/storage/apps/eb/software/gaussian/09/l508.exe)
 Direct SCF.
 Tight linear equation convergence will be used.
 RHF wavefunction.
 Quadratic Convergence SCF Method.
 Line search only if initial step raises energy.
 Integral symmetry usage will be decided dynamically.
 ReadGW:  IGet=1 IStart=         402 Next=         402 LGW=           0.
 Keep R1 ints in memory in canonical form, NReq=17057209.
 FoFCou: FMM=F IPFlag=           0 FMFlag=           0 FMFlg1=           0
         NFxFlg=           0 DoJE=F BraDBF=F KetDBF=F FulRan=T
         wScrn=  0.000000 ICntrl=     600 IOpCl=  0 I1Cent=           0 NGrid=           0
         NMat0=    1 NMatS0=   5671 NMatT0=    0 NMatD0=    1 NMtDS0=    0 NMtDT0=    0
 Symmetry not used in FoFCou.
 Iteration   1 EE= -342.803832969300                                    Grad=9.437D-02 Max rot=    0.5123 deg.
 Gradient too large for Newton-Raphson -- use scaled steepest descent instead.
 Alpha Gap=     1.828 HL deriv= 1.73D-04
     ILin= 1 X=0.000D+00 Y=-3.428038329693D+02 DE= 0.00D+00 F= -7.49D-03
     ILin= 2 X=3.000D-01 Y=-3.428058312758D+02 DE=-2.00D-03 F= -5.83D-03
     ILin= 3 X=6.000D-01 Y=-3.428073328096D+02 DE=-3.50D-03 F= -4.18D-03
     ILin= 4 X=1.200D+00 Y=-3.428088446451D+02 DE=-5.01D-03 F= -8.62D-04
     ILin= 5 X=2.400D+00 Y=-3.428058982749D+02 DE=-2.07D-03 F=  5.77D-03
     An  expanding polynomial of degree  5 produced  1.3560
 Iteration   2 EE= -342.808911881469     Delta-E=       -0.005078912169 Grad=4.941D-02 Max rot=    0.2961 deg.
 Gradient too large for Newton-Raphson -- use scaled steepest descent instead.
 Alpha Gap=     1.829 HL deriv= 4.22D-04
     ILin= 1 X=0.000D+00 Y=-3.428089118815D+02 DE= 0.00D+00 F= -2.08D-03
     ILin= 2 X=6.000D-01 Y=-3.428097641102D+02 DE=-8.52D-04 F= -7.60D-04
     ILin= 3 X=1.300D+00 Y=-3.428097561090D+02 DE=-8.44D-04 F=  7.82D-04
     An  expanding polynomial of degree  3 produced  0.9448
 Iteration   3 EE= -342.809895060891     Delta-E=       -0.000983179422 Grad=2.640D-02 Max rot=    0.1882 deg.
 Gradient too large for Newton-Raphson -- use scaled steepest descent instead.
 Alpha Gap=     1.829 HL deriv= 1.64D-04
     ILin= 1 X=0.000D+00 Y=-3.428098950609D+02 DE= 0.00D+00 F= -6.26D-04
     ILin= 2 X=1.100D+00 Y=-3.428102042876D+02 DE=-3.09D-04 F=  6.42D-05
     Accept linear search using points  1 and  2.
     An  expanding polynomial of degree  2 produced  1.0172
     Minimum is close to point  2 DX= -8.28D-02 DF= -2.40D-06 DXR=  8.14D-02 DFR=  7.77D-03 which will be used.
 Iteration   4 EE= -342.810204287643     Delta-E=       -0.000309226752 Grad=2.328D-02 Max rot=    0.1545 deg.
 Gradient too large for Newton-Raphson -- use scaled steepest descent instead.
 Alpha Gap=     1.829 HL deriv= 3.56D-04
     ILin= 1 X=0.000D+00 Y=-3.428102042876D+02 DE= 0.00D+00 F= -4.70D-04
     ILin= 2 X=1.000D+00 Y=-3.428103434140D+02 DE=-1.39D-04 F=  1.92D-04
     Accept linear search using points  1 and  2.
     An  expanding polynomial of degree  2 produced  0.7101
 Iteration   5 EE= -342.810371244604     Delta-E=       -0.000166956960 Grad=1.299D-02 Max rot=    0.1214 deg.
 Gradient too large for Newton-Raphson -- use scaled steepest descent instead.
 Alpha Gap=     1.829 HL deriv= 1.54D-04
     ILin= 1 X=0.000D+00 Y=-3.428103712446D+02 DE= 0.00D+00 F= -1.55D-04
     ILin= 2 X=8.000D-01 Y=-3.428104515337D+02 DE=-8.03D-05 F= -4.54D-05
     Reject lnstep minimum 1.816D+00 FVal=-3.428104968985D+02 Lims=  0.00D+00  8.00D-01
     ILin= 3 X=1.700D+00 Y=-3.428104367372D+02 DE=-6.55D-05 F=  7.83D-05
     An  expanding polynomial of degree  3 produced  1.1304
 Iteration   6 EE= -342.810459032206     Delta-E=       -0.000087787603 Grad=1.297D-02 Max rot=    0.1005 deg.
 Gradient too large for Newton-Raphson -- use scaled steepest descent instead.
 Alpha Gap=     1.829 HL deriv= 2.65D-04
     ILin= 1 X=0.000D+00 Y=-3.428104590322D+02 DE= 0.00D+00 F= -1.48D-04
     ILin= 2 X=9.000D-01 Y=-3.428105063589D+02 DE=-4.73D-05 F=  4.25D-05
     Accept linear search using points  1 and  2.
[...]
                           ----------------------------
                           !   Optimized Parameters   !
                           ! (Angstroms and Degrees)  !
 --------------------------                            --------------------------
 ! Name  Definition              Value          Derivative Info.                !
 --------------------------------------------------------------------------------
 ! R1    R(1,2)                  1.397          -DE/DX =    0.0                 !
 ! R2    R(1,7)                  0.949          -DE/DX =    0.0                 !
 ! R3    R(2,3)                  1.522          -DE/DX =    0.0                 !
 ! R4    R(2,8)                  1.0902         -DE/DX =    0.0                 !
 ! R5    R(2,9)                  1.0832         -DE/DX =    0.0                 !
 ! R6    R(3,4)                  1.4197         -DE/DX =    0.0                 !
 ! R7    R(3,5)                  1.5193         -DE/DX =    0.0                 !
 ! R8    R(3,10)                 1.0871         -DE/DX =    0.0                 !
 ! R9    R(4,11)                 0.9472         -DE/DX =    0.0                 !
 ! R10   R(5,6)                  1.3977         -DE/DX =    0.0                 !
 ! R11   R(5,12)                 1.0825         -DE/DX =    0.0                 !
 ! R12   R(5,13)                 1.0852         -DE/DX =    0.0                 !
 ! R13   R(6,14)                 0.9483         -DE/DX =    0.0                 !
 ! A1    A(2,1,7)              107.9733         -DE/DX =    0.0                 !
 ! A2    A(1,2,3)              111.8131         -DE/DX =    0.0                 !
 ! A3    A(1,2,8)              110.7143         -DE/DX =    0.0                 !
 ! A4    A(1,2,9)              107.1616         -DE/DX =    0.0                 !
 ! A5    A(3,2,8)              109.131          -DE/DX =    0.0                 !
 ! A6    A(3,2,9)              110.4817         -DE/DX =    0.0                 !
 ! A7    A(8,2,9)              107.437          -DE/DX =    0.0                 !
 ! A8    A(2,3,4)              109.2884         -DE/DX =    0.0                 !
 ! A9    A(2,3,5)              113.5964         -DE/DX =    0.0                 !
 ! A10   A(2,3,10)             109.6692         -DE/DX =    0.0                 !
 ! A11   A(4,3,5)              106.0112         -DE/DX =    0.0                 !
 ! A12   A(4,3,10)             109.8178         -DE/DX =    0.0                 !
 ! A13   A(5,3,10)             108.3654         -DE/DX =    0.0                 !
 ! A14   A(3,4,11)             110.2138         -DE/DX =    0.0                 !
 ! A15   A(3,5,6)              111.0467         -DE/DX =    0.0                 !
 ! A16   A(3,5,12)             109.7812         -DE/DX =    0.0                 !
 ! A17   A(3,5,13)             109.5284         -DE/DX =    0.0                 !
 ! A18   A(6,5,12)             107.0081         -DE/DX =    0.0                 !
 ! A19   A(6,5,13)             111.3218         -DE/DX =    0.0                 !
 ! A20   A(12,5,13)            108.0732         -DE/DX =    0.0                 !
 ! A21   A(5,6,14)             107.7332         -DE/DX =    0.0                 !
 ! D1    D(7,1,2,3)             49.9436         -DE/DX =    0.0                 !
 ! D2    D(7,1,2,8)            -71.9775         -DE/DX =    0.0                 !
 ! D3    D(7,1,2,9)            171.1456         -DE/DX =    0.0                 !
 ! D4    D(1,2,3,4)            -56.5653         -DE/DX =    0.0                 !
 ! D5    D(1,2,3,5)             61.5835         -DE/DX =    0.0                 !
 ! D6    D(1,2,3,10)          -176.9993         -DE/DX =    0.0                 !
 ! D7    D(8,2,3,4)             66.261          -DE/DX =    0.0                 !
 ! D8    D(8,2,3,5)           -175.5902         -DE/DX =    0.0                 !
 ! D9    D(8,2,3,10)           -54.173          -DE/DX =    0.0                 !
 ! D10   D(9,2,3,4)           -175.825          -DE/DX =    0.0                 !
 ! D11   D(9,2,3,5)            -57.6761         -DE/DX =    0.0                 !
 ! D12   D(9,2,3,10)            63.7411         -DE/DX =    0.0                 !
 ! D13   D(2,3,4,11)           -82.4858         -DE/DX =    0.0                 !
 ! D14   D(5,3,4,11)           154.7189         -DE/DX =    0.0                 !
 ! D15   D(10,3,4,11)           37.8572         -DE/DX =    0.0                 !
 ! D16   D(2,3,5,6)            179.8015         -DE/DX =    0.0                 !
 ! D17   D(2,3,5,12)            61.6722         -DE/DX =    0.0                 !
 ! D18   D(2,3,5,13)           -56.8414         -DE/DX =    0.0                 !
 ! D19   D(4,3,5,6)            -60.1748         -DE/DX =    0.0                 !
 ! D20   D(4,3,5,12)          -178.3041         -DE/DX =    0.0                 !
 ! D21   D(4,3,5,13)            63.1822         -DE/DX =    0.0                 !
 ! D22   D(10,3,5,6)            57.6589         -DE/DX =    0.0                 !
 ! D23   D(10,3,5,12)          -60.4704         -DE/DX =    0.0                 !
 ! D24   D(10,3,5,13)         -178.984          -DE/DX =    0.0                 !
 ! D25   D(3,5,6,14)            57.1903         -DE/DX =    0.0                 !
 ! D26   D(12,5,6,14)          176.9861         -DE/DX =    0.0                 !
 ! D27   D(13,5,6,14)          -65.132          -DE/DX =    0.0                 !
 --------------------------------------------------------------------------------
 Lowest energy point so far.  Saving SCF results.
 GradGradGradGradGradGradGradGradGradGradGradGradGradGradGradGradGradGrad

 Largest change from initial coordinates is atom   14       0.646 Angstoms.
 Leave Link  103 at Wed Sep 20 14:38:32 2023, MaxMem=    33554432 cpu:         0.0
 (Enter /mnt/storage/apps/eb/software/gaussian/09/l202.exe)
                          Input orientation:                          
 ---------------------------------------------------------------------
 Center     Atomic      Atomic             Coordinates (Angstroms)
 Number     Number       Type             X           Y           Z
 ---------------------------------------------------------------------
      1          8           0        1.839361    0.320752   -0.912723
      2          6           0        1.151634   -0.776491   -0.388700
      3          6           0       -0.128766   -0.356172    0.318631
      4          8           0        0.184069    0.584086    1.335231
      5          6           0       -1.130258    0.331089   -0.594047
      6          8           0       -2.284920    0.689509    0.107283
      7          1           0        1.920349    0.970796   -0.226014
      8          1           0        1.781005   -1.328335    0.309740
      9          1           0        0.927646   -1.438326   -1.216418
     10          1           0       -0.607424   -1.227984    0.757572
     11          1           0        0.471489    0.135737    2.118485
     12          1           0       -1.435211   -0.347580   -1.380321
     13          1           0       -0.665477    1.195524   -1.056961
     14          1           0       -2.023495    1.247394    0.828241
 ---------------------------------------------------------------------
                    Distance matrix (angstroms):
                    1          2          3          4          5
     1  O    0.000000
     2  C    1.396965   0.000000
     3  C    2.418261   1.521975   0.000000
     4  O    2.804039   2.399851   1.419657   0.000000
     5  C    2.986687   2.544785   1.519307   2.348100   0.000000
     6  O    4.264515   3.768959   2.405643   2.759507   1.397703
     7  H    0.949044   1.915829   2.501271   2.366790   3.138610
     8  H    2.053609   1.090164   2.142989   2.694288   3.470730
     9  H    2.004449   1.083197   2.154864   3.339756   2.784447
    10  H    3.342937   2.147573   1.087124   2.060036   2.128600
    11  H    3.330695   2.753313   1.960040   0.947161   3.156198
    12  H    3.374632   2.803399   2.143201   3.296102   1.082504
    13  H    2.657113   2.763568   2.141979   2.611162   1.085154
    14  H    4.337197   3.957082   2.533994   2.360160   1.913214
                    6          7          8          9         10
     6  O    0.000000
     7  H    4.227824   0.000000
     8  H    4.543614   2.364837   0.000000
     9  H    4.074365   2.787513   1.751993   0.000000
    10  H    2.629382   3.491663   2.432121   2.509447   0.000000
    11  H    3.456789   2.879791   2.670187   3.715823   2.208137
    12  H    2.002629   3.785541   3.763274   2.607621   2.455795
    13  H    2.057695   2.725339   3.771341   3.082310   3.028084
    14  H    0.948345   4.091682   4.623574   4.483632   2.852673
                   11         12         13         14
    11  H    0.000000
    12  H    4.013819   0.000000
    13  H    3.535435   1.754486   0.000000
    14  H    3.020837   2.787070   2.323981   0.000000
 Stoichiometry    C3H8O3
 Framework group  C1[X(C3H8O3)]
 Deg. of freedom    36
 Full point group                 C1      NOp   1
 RotChk:  IX=0 Diff= 1.27D-15
 Largest Abelian subgroup         C1      NOp   1
 Largest concise Abelian subgroup C1      NOp   1
                         Standard orientation:                         
 ---------------------------------------------------------------------
 Center     Atomic      Atomic             Coordinates (Angstroms)
 Number     Number       Type             X           Y           Z
 ---------------------------------------------------------------------
      1          8           0        1.937287   -0.495180   -0.663513
      2          6           0        1.417677   -0.244660    0.608791
      3          6           0       -0.026620    0.231252    0.546176
      4          8           0       -0.104348    1.387099   -0.274435
      5          6           0       -0.975301   -0.783771   -0.068665
      6          8           0       -2.284516   -0.295100   -0.095680
      7          1           0        1.756335    0.260900   -1.207833
      8          1           0        2.017459    0.501573    1.130189
      9          1           0        1.488430   -1.168153    1.170458
     10          1           0       -0.378292    0.465967    1.547712
     11          1           0        0.129841    2.158170    0.223279
     12          1           0       -0.986066   -1.685134    0.530705
     13          1           0       -0.631192   -1.045431   -1.063995
     14          1           0       -2.278434    0.520635   -0.579309
 ---------------------------------------------------------------------
 Rotational constants (GHZ):      6.2838294      2.2946327      2.0123227
 Leave Link  202 at Wed Sep 20 14:38:32 2023, MaxMem=    33554432 cpu:         0.0
 (Enter /mnt/storage/apps/eb/software/gaussian/09/l601.exe)
 Copying SCF densities to generalized density rwf, IOpCl= 0 IROHF=0.

 **********************************************************************

            Population analysis using the SCF density.

 **********************************************************************

 Orbital symmetries:
       Occupied  (A) (A) (A) (A) (A) (A) (A) (A) (A) (A) (A) (A)
                 (A) (A) (A) (A) (A) (A) (A) (A) (A) (A) (A) (A)
                 (A)
       Virtual   (A) (A) (A) (A) (A) (A) (A) (A) (A) (A) (A) (A)
                 (A) (A) (A) (A) (A) (A) (A) (A) (A) (A) (A) (A)
                 (A) (A) (A) (A) (A) (A) (A) (A) (A) (A) (A) (A)
                 (A) (A) (A) (A) (A) (A) (A) (A) (A) (A) (A) (A)
                 (A) (A) (A) (A) (A) (A) (A) (A) (A) (A) (A) (A)
                 (A) (A) (A) (A) (A) (A) (A) (A) (A) (A) (A) (A)
                 (A) (A) (A) (A) (A) (A) (A) (A) (A)
 The electronic state is 1-A.
 Alpha  occ. eigenvalues --  -20.58442 -20.56016 -20.55145 -11.28641 -11.27874
 Alpha  occ. eigenvalues --  -11.26869  -1.39994  -1.36573  -1.35417  -1.03693
 Alpha  occ. eigenvalues --   -0.92322  -0.82679  -0.73994  -0.70488  -0.68137
 Alpha  occ. eigenvalues --   -0.64528  -0.62303  -0.59841  -0.58394  -0.53116
 Alpha  occ. eigenvalues --   -0.52461  -0.49466  -0.47790  -0.45127  -0.41782
 Alpha virt. eigenvalues --    0.19719   0.25379   0.26275   0.27425   0.29793
 Alpha virt. eigenvalues --    0.30977   0.32337   0.35209   0.37303   0.41301
 Alpha virt. eigenvalues --    0.42704   0.43123   0.48843   0.76826   0.77751
 Alpha virt. eigenvalues --    0.79250   0.81154   0.82780   0.90461   0.92206
 Alpha virt. eigenvalues --    0.93946   0.97086   1.06039   1.07975   1.09491
 Alpha virt. eigenvalues --    1.09907   1.14414   1.15858   1.16264   1.18811
 Alpha virt. eigenvalues --    1.20996   1.23264   1.26062   1.28844   1.29692
 Alpha virt. eigenvalues --    1.34982   1.38002   1.43074   1.45942   1.48890
 Alpha virt. eigenvalues --    1.58435   1.63909   1.68552   1.69963   1.78355
 Alpha virt. eigenvalues --    1.86264   1.88808   1.93938   1.96856   1.99681
 Alpha virt. eigenvalues --    2.04634   2.08140   2.13371   2.20104   2.25324
 Alpha virt. eigenvalues --    2.31767   2.41024   2.43019   2.44288   2.48032
 Alpha virt. eigenvalues --    2.49085   2.60369   2.62336   2.67560   2.71957
 Alpha virt. eigenvalues --    2.75028   2.82202   2.84949   2.91125   2.98272
 Alpha virt. eigenvalues --    2.99518   3.13490   3.19619   3.25159   3.26535
 Alpha virt. eigenvalues --    4.14949   4.21472   4.25033   4.67755   4.78340
 Alpha virt. eigenvalues --    4.96392
          Condensed to atoms (all electrons):
               1          2          3          4          5          6
     1  O    8.378476   0.220045  -0.045544  -0.003596  -0.002629   0.000015
     2  C    0.220045   4.834560   0.342007  -0.053281  -0.059116   0.002956
     3  C   -0.045544   0.342007   4.962047   0.178627   0.359956  -0.045093
     4  O   -0.003596  -0.053281   0.178627   8.462611  -0.063172  -0.001010
     5  C   -0.002629  -0.059116   0.359956  -0.063172   4.780289   0.222289
     6  O    0.000015   0.002956  -0.045093  -0.001010   0.222289   8.380000
     7  H    0.261481  -0.029091  -0.011847   0.014831  -0.000055  -0.000024
     8  H   -0.040269   0.391945  -0.046923  -0.001298   0.005079  -0.000063
     9  H   -0.037031   0.397304  -0.040976   0.003358  -0.003422  -0.000024
    10  H    0.003059  -0.046811   0.392108  -0.035418  -0.038798   0.001714
    11  H    0.000135  -0.000542  -0.019535   0.260839   0.005822  -0.000173
    12  H    0.000115   0.000723  -0.044751   0.002985   0.403448  -0.035529
    13  H    0.007046  -0.003229  -0.045516  -0.001587   0.394867  -0.038033
    14  H    0.000004   0.000333  -0.010551   0.013459  -0.028131   0.263166
               7          8          9         10         11         12
     1  O    0.261481  -0.040269  -0.037031   0.003059   0.000135   0.000115
     2  C   -0.029091   0.391945   0.397304  -0.046811  -0.000542   0.000723
     3  C   -0.011847  -0.046923  -0.040976   0.392108  -0.019535  -0.044751
     4  O    0.014831  -0.001298   0.003358  -0.035418   0.260839   0.002985
     5  C   -0.000055   0.005079  -0.003422  -0.038798   0.005822   0.403448
     6  O   -0.000024  -0.000063  -0.000024   0.001714  -0.000173  -0.035529
     7  H    0.307335  -0.002136   0.005730   0.000522  -0.000286   0.000000
     8  H   -0.002136   0.589798  -0.035621  -0.001020   0.001775  -0.000163
     9  H    0.005730  -0.035621   0.535329   0.001987  -0.000087   0.001457
    10  H    0.000522  -0.001020   0.001987   0.560691  -0.005949  -0.002555
    11  H   -0.000286   0.001775  -0.000087  -0.005949   0.309262  -0.000172
    12  H    0.000000  -0.000163   0.001457  -0.002555  -0.000172   0.533237
    13  H    0.000687   0.000067   0.000060   0.005313  -0.000230  -0.032569
    14  H   -0.000014  -0.000007  -0.000013  -0.000071  -0.000575   0.005673
              13         14
     1  O    0.007046   0.000004
     2  C   -0.003229   0.000333
     3  C   -0.045516  -0.010551
     4  O   -0.001587   0.013459
     5  C    0.394867  -0.028131
     6  O   -0.038033   0.263166
     7  H    0.000687  -0.000014
     8  H    0.000067  -0.000007
     9  H    0.000060  -0.000013
    10  H    0.005313  -0.000071
    11  H   -0.000230  -0.000575
    12  H   -0.032569   0.005673
    13  H    0.547085  -0.002670
    14  H   -0.002670   0.307712
 Mulliken charges:
               1
     1  O   -0.741307
     2  C    0.002195
     3  C    0.075989
     4  O   -0.777348
     5  C    0.023574
     6  O   -0.750192
     7  H    0.452868
     8  H    0.138836
     9  H    0.171947
    10  H    0.165227
    11  H    0.449715
    12  H    0.168101
    13  H    0.168710
    14  H    0.451686
 Sum of Mulliken charges =   0.00000
 Mulliken charges with hydrogens summed into heavy atoms:
               1
     1  O   -0.288440
     2  C    0.312979
     3  C    0.241217
     4  O   -0.327634
     5  C    0.360384
     6  O   -0.298506
 Electronic spatial extent (au):  <R**2>=            638.9811
 Charge=              0.0000 electrons
 Dipole moment (field-independent basis, Debye):
    X=              1.0134    Y=              2.5044    Z=              1.3927  Tot=              3.0395
 Quadrupole moment (field-independent basis, Debye-Ang):
   XX=            -45.9261   YY=            -32.5823   ZZ=            -34.3040
   XY=              1.0598   XZ=              2.8656   YZ=             -0.4900
 Traceless Quadrupole moment (field-independent basis, Debye-Ang):
   XX=             -8.3220   YY=              5.0218   ZZ=              3.3002
   XY=              1.0598   XZ=              2.8656   YZ=             -0.4900
 Octapole moment (field-independent basis, Debye-Ang**2):
  XXX=              4.1689  YYY=             14.7008  ZZZ=             -6.2913  XYY=             -0.9632
  XXY=             17.0509  XXZ=             -2.9345  XZZ=              0.6089  YZZ=              2.8110
  YYZ=              4.6149  XYZ=             -1.9576
 Hexadecapole moment (field-independent basis, Debye-Ang**3):
 XXXX=           -552.8571 YYYY=           -132.0980 ZZZZ=            -97.1626 XXXY=            -12.0513
 XXXZ=             13.8098 YYYX=              3.6748 YYYZ=              4.5332 ZZZX=             -7.4701
 ZZZY=             -1.5673 XXYY=           -107.0925 XXZZ=            -91.4775 YYZZ=            -44.2584
 XXYZ=            -12.5013 YYXZ=              1.2477 ZZXY=              1.5623
 N-N= 2.665225932181D+02 E-N=-1.341129767193D+03  KE= 3.422784980271D+02
 No NMR shielding tensors so no spin-rotation constants.
 Leave Link  601 at Wed Sep 20 14:38:32 2023, MaxMem=    33554432 cpu:         0.1
 (Enter /mnt/storage/apps/eb/software/gaussian/09/l9999.exe)
 1\1\GINC-SB084\FOpt\RHF\6-31G(d)\C3H8O3\NCA121\20-Sep-2023\0\\#P hf/6-
 31G* scf(qc) opt(tight,maxcycle=100)\\Gaussian input prepared by ASE\\
 0,1\O,1.8393614106,0.3207524335,-0.9127230165\C,1.1516336813,-0.776490
 7197,-0.3886995316\C,-0.1287661781,-0.3561724572,0.3186308628\O,0.1840
 690033,0.5840858531,1.3352306928\C,-1.130257823,0.3310891303,-0.594046
 7196\O,-2.2849199448,0.6895091523,0.1072829431\H,1.9203485846,0.970796
 0435,-0.2260138909\H,1.7810046369,-1.3283350057,0.3097398762\H,0.92764
 57935,-1.4383264762,-1.2164183959\H,-0.607423851,-1.227983818,0.757572
 3185\H,0.4714886767,0.1357367489,2.1184853264\H,-1.435211458,-0.347579
 8429,-1.3803207147\H,-0.6654774722,1.195524224,-1.0569613804\H,-2.0234
 950597,1.2473937341,0.8282406299\\Version=ES64L-G09RevD.01\State=1-A\H
 F=-342.8139451\RMSD=0.000e+00\RMSF=1.550e-06\Dipole=0.479394,-0.508546
 1,0.9703446\Quadrupole=-5.9131769,2.9989978,2.9141791,0.0203096,2.8485
 475,0.2699101\PG=C01 [X(C3H8O3)]\\@


 The theorems and results in mathematical physics are
 not theorems and results about Nature, but about our
 description of it.
                   --Gerard 't Hooft
 Job cpu time:       0 days  0 hours  0 minutes 55.3 seconds.
 File lengths (MBytes):  RWF=      6 Int=      0 D2E=      0 Chk=      2 Scr=      1
 Normal termination of Gaussian 09 at Wed Sep 20 14:38:32 2023.
