 Entering Gaussian System, Link 0=g09
 Initial command:
 /mnt/storage/apps/eb/software/gaussian/09/l1.exe "/scratch/nca121/18446470/Gau-12821.inp" -scrdir="/scratch/nca121/18446470/"
 Entering Link 1 = /mnt/storage/apps/eb/software/gaussian/09/l1.exe PID=     12822.
  
 Copyright (c) 1988,1990,1992,1993,1995,1998,2003,2009,2013,
            Gaussian, Inc.  All Rights Reserved.
  
 This is part of the Gaussian(R) 09 program.  It is based on
 the Gaussian(R) 03 system (copyright 2003, Gaussian, Inc.),
 the Gaussian(R) 98 system (copyright 1998, Gaussian, Inc.),
 the Gaussian(R) 94 system (copyright 1995, Gaussian, Inc.),
 the Gaussian 92(TM) system (copyright 1992, Gaussian, Inc.),
 the Gaussian 90(TM) system (copyright 1990, Gaussian, Inc.),
 the Gaussian 88(TM) system (copyright 1988, Gaussian, Inc.),
 the Gaussian 86(TM) system (copyright 1986, Carnegie Mellon
 University), and the Gaussian 82(TM) system (copyright 1983,
 Carnegie Mellon University). Gaussian is a federally registered
 trademark of Gaussian, Inc.
  
 This software contains proprietary and confidential information,
 including trade secrets, belonging to Gaussian, Inc.
  
 This software is provided under written license and may be
 used, copied, transmitted, or stored only in accord with that
 written license.
  
 The following legend is applicable only to US Government
 contracts under FAR:
  
                    RESTRICTED RIGHTS LEGEND
  
 Use, reproduction and disclosure by the US Government is
 subject to restrictions as set forth in subparagraphs (a)
 and (c) of the Commercial Computer Software - Restricted
 Rights clause in FAR 52.227-19.
  
 Gaussian, Inc.
 340 Quinnipiac St., Bldg. 40, Wallingford CT 06492
  
  
 ---------------------------------------------------------------
 Warning -- This program may not be used in any manner that
 competes with the business of Gaussian, Inc. or will provide
 assistance to any competitor of Gaussian, Inc.  The licensee
 of this program is prohibited from giving any competitor of
 Gaussian, Inc. access to this program.  By using this program,
 the user acknowledges that Gaussian, Inc. is engaged in the
 business of creating and licensing software in the field of
 computational chemistry and represents and warrants to the
 licensee that it is not a competitor of Gaussian, Inc. and that
 it will not use this program in any manner prohibited above.
 ---------------------------------------------------------------
  

 Cite this work as:
 Gaussian 09, Revision D.01,
 M. J. Frisch, G. W. Trucks, H. B. Schlegel, G. E. Scuseria, 
 M. A. Robb, J. R. Cheeseman, G. Scalmani, V. Barone, B. Mennucci, 
 G. A. Petersson, H. Nakatsuji, M. Caricato, X. Li, H. P. Hratchian, 
 A. F. Izmaylov, J. Bloino, G. Zheng, J. L. Sonnenberg, M. Hada, 
 M. Ehara, K. Toyota, R. Fukuda, J. Hasegawa, M. Ishida, T. Nakajima, 
 Y. Honda, O. Kitao, H. Nakai, T. Vreven, J. A. Montgomery, Jr., 
 J. E. Peralta, F. Ogliaro, M. Bearpark, J. J. Heyd, E. Brothers, 
 K. N. Kudin, V. N. Staroverov, T. Keith, R. Kobayashi, J. Normand, 
 K. Raghavachari, A. Rendell, J. C. Burant, S. S. Iyengar, J. Tomasi, 
 M. Cossi, N. Rega, J. M. Millam, M. Klene, J. E. Knox, J. B. Cross, 
 V. Bakken, C. Adamo, J. Jaramillo, R. Gomperts, R. E. Stratmann, 
 O. Yazyev, A. J. Austin, R. Cammi, C. Pomelli, J. W. Ochterski, 
 R. L. Martin, K. Morokuma, V. G. Zakrzewski, G. A. Voth, 
 P. Salvador, J. J. Dannenberg, S. Dapprich, A. D. Daniels, 
 O. Farkas, J. B. Foresman, J. V. Ortiz, J. Cioslowski, 
 and D. J. Fox, Gaussian, Inc., Wallingford CT, 2013.
 
 ******************************************
 Gaussian 09:  ES64L-G09RevD.01 24-Apr-2013
                20-Sep-2023 
 ******************************************
 --------------------------------------------
 #P hf/6-31G* scf(qc) opt(tight,maxcycle=100)
 --------------------------------------------
 1/6=100,7=10,18=20,19=15,38=1/1,3;
 2/9=110,12=2,17=6,18=5,40=1/2;
 3/5=1,6=6,7=1,11=9,16=1,25=1,30=1,71=1/1,2,3;
 4//1;
 5/5=2,8=3,38=5/8;
 6/7=2,8=2,9=2,10=2,28=1/1;
 7//1,2,3,16;
 1/6=100,7=10,18=20,19=15/3(2);
 2/9=110/2;
 99//99;
 2/9=110/2;
 3/5=1,6=6,7=1,11=9,16=1,25=1,30=1,71=1/1,2,3;
 4/5=5,16=3,69=1/1;
 5/5=2,8=3,38=5/8;
 7//1,2,3,16;
 1/6=100,7=10,18=20,19=15/3(-5);
 2/9=110/2;
 6/7=2,8=2,9=2,10=2,19=2,28=1/1;
 99/9=1/99;
 Leave Link    1 at Wed Sep 20 14:35:39 2023, MaxMem=           0 cpu:         0.0
 (Enter /mnt/storage/apps/eb/software/gaussian/09/l101.exe)
 ------------------------------
 Gaussian input prepared by ASE
 ------------------------------
 Symbolic Z-matrix:
 Charge =  0 Multiplicity = 1
 O                     1.69503   0.59682  -0.43511 
 C                     0.79145  -0.42292  -0.74711 
 C                    -0.08484  -0.59682   0.47693 
 O                    -1.03467  -1.57551   0.32359 
 C                    -0.71008   0.77279   0.74792 
 O                    -1.51647   1.07577  -0.34599 
 H                     2.34213   0.18971   0.2128 
 H                     1.38797  -1.31014  -0.9826 
 H                     0.2142   -0.09665  -1.6316 
 H                     0.58488  -0.86731   1.31882 
 H                    -1.42919  -1.61179  -0.58182 
 H                    -1.3561    0.63698   1.65294 
 H                     0.10341   1.49903   0.9073 
 H                    -0.98771   1.71004  -0.91605 
 
 NAtoms=     14 NQM=       14 NQMF=       0 NMMI=      0 NMMIF=      0
                NMic=       0 NMicF=      0.
                    Isotopes and Nuclear Properties:
 (Nuclear quadrupole moments (NQMom) in fm**2, nuclear magnetic moments (NMagM)
  in nuclear magnetons)

  Atom         1           2           3           4           5           6           7           8           9          10
 IAtWgt=          16          12          12          16          12          16           1           1           1           1
 AtmWgt=  15.9949146  12.0000000  12.0000000  15.9949146  12.0000000  15.9949146   1.0078250   1.0078250   1.0078250   1.0078250
 NucSpn=           0           0           0           0           0           0           1           1           1           1
 AtZEff=   0.0000000   0.0000000   0.0000000   0.0000000   0.0000000   0.0000000   0.0000000   0.0000000   0.0000000   0.0000000
 NQMom=    0.0000000   0.0000000   0.0000000   0.0000000   0.0000000   0.0000000   0.0000000   0.0000000   0.0000000   0.0000000
 NMagM=    0.0000000   0.0000000   0.0000000   0.0000000   0.0000000   0.0000000   2.7928460   2.7928460   2.7928460   2.7928460
 AtZNuc=   8.0000000   6.0000000   6.0000000   8.0000000   6.0000000   8.0000000   1.0000000   1.0000000   1.0000000   1.0000000

  Atom        11          12          13          14
 IAtWgt=           1           1           1           1
 AtmWgt=   1.0078250   1.0078250   1.0078250   1.0078250
 NucSpn=           1           1           1           1
 AtZEff=   0.0000000   0.0000000   0.0000000   0.0000000
 NQMom=    0.0000000   0.0000000   0.0000000   0.0000000
 NMagM=    2.7928460   2.7928460   2.7928460   2.7928460
 AtZNuc=   1.0000000   1.0000000   1.0000000   1.0000000
 Leave Link  101 at Wed Sep 20 14:35:39 2023, MaxMem=    33554432 cpu:         0.0
 (Enter /mnt/storage/apps/eb/software/gaussian/09/l103.exe)

 GradGradGradGradGradGradGradGradGradGradGradGradGradGradGradGradGradGrad
 Berny optimization.
 Initialization pass.
                           ----------------------------
                           !    Initial Parameters    !
                           ! (Angstroms and Degrees)  !
 --------------------------                            --------------------------
 ! Name  Definition              Value          Derivative Info.                !
 --------------------------------------------------------------------------------
 ! R1    R(1,2)                  1.3977         estimate D2E/DX2                !
 ! R2    R(1,7)                  1.0021         estimate D2E/DX2                !
 ! R3    R(2,3)                  1.5154         estimate D2E/DX2                !
 ! R4    R(2,8)                  1.0947         estimate D2E/DX2                !
 ! R5    R(2,9)                  1.1054         estimate D2E/DX2                !
 ! R6    R(3,4)                  1.3724         estimate D2E/DX2                !
 ! R7    R(3,5)                  1.5298         estimate D2E/DX2                !
 ! R8    R(3,10)                 1.1093         estimate D2E/DX2                !
 ! R9    R(4,11)                 0.9883         estimate D2E/DX2                !
 ! R10   R(5,6)                  1.3924         estimate D2E/DX2                !
 ! R11   R(5,12)                 1.1202         estimate D2E/DX2                !
 ! R12   R(5,13)                 1.1021         estimate D2E/DX2                !
 ! R13   R(6,14)                 1.0034         estimate D2E/DX2                !
 ! A1    A(2,1,7)              105.389          estimate D2E/DX2                !
 ! A2    A(1,2,3)              106.0957         estimate D2E/DX2                !
 ! A3    A(1,2,8)              106.6805         estimate D2E/DX2                !
 ! A4    A(1,2,9)              107.5084         estimate D2E/DX2                !
 ! A5    A(3,2,8)              113.3187         estimate D2E/DX2                !
 ! A6    A(3,2,9)              112.2221         estimate D2E/DX2                !
 ! A7    A(8,2,9)              110.5868         estimate D2E/DX2                !
 ! A8    A(2,3,4)              113.066          estimate D2E/DX2                !
 ! A9    A(2,3,5)              106.0627         estimate D2E/DX2                !
 ! A10   A(2,3,10)             106.972          estimate D2E/DX2                !
 ! A11   A(4,3,5)              112.0479         estimate D2E/DX2                !
 ! A12   A(4,3,10)             109.1931         estimate D2E/DX2                !
 ! A13   A(5,3,10)             109.3074         estimate D2E/DX2                !
 ! A14   A(3,4,11)             113.8792         estimate D2E/DX2                !
 ! A15   A(3,5,6)              106.9991         estimate D2E/DX2                !
 ! A16   A(3,5,12)             105.6805         estimate D2E/DX2                !
 ! A17   A(3,5,13)             108.295          estimate D2E/DX2                !
 ! A18   A(6,5,12)             109.0937         estimate D2E/DX2                !
 ! A19   A(6,5,13)             113.4357         estimate D2E/DX2                !
 ! A20   A(12,5,13)            112.876          estimate D2E/DX2                !
 ! A21   A(5,6,14)             106.1821         estimate D2E/DX2                !
 ! D1    D(7,1,2,3)             73.1176         estimate D2E/DX2                !
 ! D2    D(7,1,2,8)            -47.9839         estimate D2E/DX2                !
 ! D3    D(7,1,2,9)           -166.6321         estimate D2E/DX2                !
 ! D4    D(1,2,3,4)            179.9995         estimate D2E/DX2                !
 ! D5    D(1,2,3,5)             56.8253         estimate D2E/DX2                !
 ! D6    D(1,2,3,10)           -59.7652         estimate D2E/DX2                !
 ! D7    D(8,2,3,4)            -63.276          estimate D2E/DX2                !
 ! D8    D(8,2,3,5)            173.5499         estimate D2E/DX2                !
 ! D9    D(8,2,3,10)            56.9593         estimate D2E/DX2                !
 ! D10   D(9,2,3,4)             62.8618         estimate D2E/DX2                !
 ! D11   D(9,2,3,5)            -60.3124         estimate D2E/DX2                !
 ! D12   D(9,2,3,10)          -176.9029         estimate D2E/DX2                !
 ! D13   D(2,3,4,11)           -37.9336         estimate D2E/DX2                !
 ! D14   D(5,3,4,11)            81.8629         estimate D2E/DX2                !
 ! D15   D(10,3,4,11)         -156.8921         estimate D2E/DX2                !
 ! D16   D(2,3,5,6)             63.8122         estimate D2E/DX2                !
 ! D17   D(2,3,5,12)           179.9864         estimate D2E/DX2                !
 ! D18   D(2,3,5,13)           -58.8106         estimate D2E/DX2                !
 ! D19   D(4,3,5,6)            -60.0011         estimate D2E/DX2                !
 ! D20   D(4,3,5,12)            56.1731         estimate D2E/DX2                !
 ! D21   D(4,3,5,13)           177.3761         estimate D2E/DX2                !
 ! D22   D(10,3,5,6)           178.8199         estimate D2E/DX2                !
 ! D23   D(10,3,5,12)          -65.006          estimate D2E/DX2                !
 ! D24   D(10,3,5,13)           56.1971         estimate D2E/DX2                !
 ! D25   D(3,5,6,14)          -100.568          estimate D2E/DX2                !
 ! D26   D(12,5,6,14)          145.5472         estimate D2E/DX2                !
 ! D27   D(13,5,6,14)           18.7912         estimate D2E/DX2                !
 --------------------------------------------------------------------------------
 Trust Radius=3.00D-01 FncErr=1.00D-07 GrdErr=1.00D-07
 Number of steps in this run=    100 maximum allowed number of steps=    100.
 GradGradGradGradGradGradGradGradGradGradGradGradGradGradGradGradGradGrad

 Leave Link  103 at Wed Sep 20 14:35:39 2023, MaxMem=    33554432 cpu:         0.0
 (Enter /mnt/storage/apps/eb/software/gaussian/09/l202.exe)
                          Input orientation:                          
 ---------------------------------------------------------------------
 Center     Atomic      Atomic             Coordinates (Angstroms)
 Number     Number       Type             X           Y           Z
 ---------------------------------------------------------------------
      1          8           0        1.695028    0.596820   -0.435112
      2          6           0        0.791451   -0.422921   -0.747110
      3          6           0       -0.084839   -0.596819    0.476928
      4          8           0       -1.034671   -1.575512    0.323588
      5          6           0       -0.710081    0.772792    0.747915
      6          8           0       -1.516473    1.075771   -0.345989
      7          1           0        2.342132    0.189712    0.212797
      8          1           0        1.387969   -1.310142   -0.982601
      9          1           0        0.214197   -0.096651   -1.631601
     10          1           0        0.584878   -0.867312    1.318821
     11          1           0       -1.429187   -1.611791   -0.581824
     12          1           0       -1.356100    0.636976    1.652935
     13          1           0        0.103409    1.499034    0.907298
     14          1           0       -0.987711    1.710044   -0.916046
 ---------------------------------------------------------------------
                    Distance matrix (angstroms):
                    1          2          3          4          5
     1  O    0.000000
     2  C    1.397736   0.000000
     3  C    2.329059   1.515386   0.000000
     4  O    3.570141   2.410307   1.372419   0.000000
     5  C    2.686088   2.432987   1.529770   2.408307   0.000000
     6  O    3.248242   2.780915   2.350388   2.776647   1.392369
     7  H    1.002131   1.923890   2.564875   3.811967   3.153147
     8  H    2.007619   1.094738   2.192765   2.765092   3.425655
     9  H    2.026166   1.105440   2.187575   2.751266   2.696723
    10  H    2.540157   2.123259   1.109266   2.028540   2.166286
    11  H    3.828865   2.524275   1.989572   0.988296   2.823394
    12  H    3.697423   3.390512   2.126346   2.601073   1.120200
    13  H    2.269208   2.627618   2.147849   3.329981   1.102087
    14  H    2.944088   2.782714   2.842036   3.511948   1.929841
                    6          7          8          9         10
     6  O    0.000000
     7  H    3.998271   0.000000
     8  H    3.812301   2.142187   0.000000
     9  H    2.454097   2.830533   1.808729   0.000000
    10  H    3.311018   2.329921   2.477417   3.071858   0.000000
    11  H    2.699301   4.254372   2.861465   2.469492   2.867605
    12  H    2.052793   3.993866   4.274018   3.713788   2.478288
    13  H    2.091387   2.684872   3.621227   3.000749   2.449644
    14  H    1.003422   3.830607   3.843151   2.284896   3.756385
                   11         12         13         14
    11  H    0.000000
    12  H    3.171189   0.000000
    13  H    3.774065   1.851833   0.000000
    14  H    3.367669   2.808353   2.135334   0.000000
 Stoichiometry    C3H8O3
 Framework group  C1[X(C3H8O3)]
 Deg. of freedom    36
 Full point group                 C1      NOp   1
 Largest Abelian subgroup         C1      NOp   1
 Largest concise Abelian subgroup C1      NOp   1
                         Standard orientation:                         
 ---------------------------------------------------------------------
 Center     Atomic      Atomic             Coordinates (Angstroms)
 Number     Number       Type             X           Y           Z
 ---------------------------------------------------------------------
      1          8           0       -1.905414   -0.450994    0.077848
      2          6           0       -1.025174    0.446200   -0.533615
      3          6           0        0.132044    0.621389    0.428959
      4          8           0        1.092067    1.485004   -0.035862
      5          6           0        0.692200   -0.780357    0.677010
      6          8           0        1.183260   -1.243847   -0.540663
      7          1           0       -2.341881    0.066499    0.816742
      8          1           0       -1.587705    1.369112   -0.707523
      9          1           0       -0.706947   -0.001660   -1.492860
     10          1           0       -0.290371    1.020078    1.373990
     11          1           0        1.257635    1.413724   -1.007580
     12          1           0        1.546573   -0.643454    1.388453
     13          1           0       -0.114247   -1.406836    1.091454
     14          1           0        0.483220   -1.862163   -0.907386
 ---------------------------------------------------------------------
 Rotational constants (GHZ):      4.4118733      3.2121405      2.3024159
 Leave Link  202 at Wed Sep 20 14:35:39 2023, MaxMem=    33554432 cpu:         0.0
 (Enter /mnt/storage/apps/eb/software/gaussian/09/l301.exe)
 Standard basis: 6-31G(d) (6D, 7F)
 Ernie: Thresh=  0.10000D-02 Tol=  0.10000D-05 Strict=F.
 There are   106 symmetry adapted cartesian basis functions of A   symmetry.
 There are   106 symmetry adapted basis functions of A   symmetry.
   106 basis functions,   200 primitive gaussians,   106 cartesian basis functions
    25 alpha electrons       25 beta electrons
       nuclear repulsion energy       271.0587628606 Hartrees.
 IExCor=    0 DFT=F Ex=HF Corr=None ExCW=0 ScaHFX=  1.000000
 ScaDFX=  1.000000  1.000000  1.000000  1.000000 ScalE2=  1.000000  1.000000
 IRadAn=      0 IRanWt=     -1 IRanGd=            0 ICorTp=0 IEmpDi=  4
 NAtoms=   14 NActive=   14 NUniq=   14 SFac= 1.00D+00 NAtFMM=   60 NAOKFM=F Big=F
 Integral buffers will be    131072 words long.
 Raffenetti 1 integral format.
 Two-electron integral symmetry is turned on.
 Leave Link  301 at Wed Sep 20 14:35:39 2023, MaxMem=    33554432 cpu:         0.0
 (Enter /mnt/storage/apps/eb/software/gaussian/09/l302.exe)
 NPDir=0 NMtPBC=     1 NCelOv=     1 NCel=       1 NClECP=     1 NCelD=      1
         NCelK=      1 NCelE2=     1 NClLst=     1 CellRange=     0.0.
 One-electron integrals computed using PRISM.
 NBasis=   106 RedAO= T EigKep=  3.13D-03  NBF=   106
 NBsUse=   106 1.00D-06 EigRej= -1.00D+00 NBFU=   106
 Leave Link  302 at Wed Sep 20 14:35:39 2023, MaxMem=    33554432 cpu:         0.1
 (Enter /mnt/storage/apps/eb/software/gaussian/09/l303.exe)
 DipDrv:  MaxL=1.
 Leave Link  303 at Wed Sep 20 14:35:39 2023, MaxMem=    33554432 cpu:         0.0
 (Enter /mnt/storage/apps/eb/software/gaussian/09/l401.exe)
 ExpMin= 1.61D-01 ExpMax= 5.48D+03 ExpMxC= 8.25D+02 IAcc=1 IRadAn=         1 AccDes= 0.00D+00
 Harris functional with IExCor=  205 and IRadAn=       1 diagonalized for initial guess.
 HarFok:  IExCor=  205 AccDes= 0.00D+00 IRadAn=         1 IDoV= 1 UseB2=F ITyADJ=14
 ICtDFT=  3500011 ScaDFX=  1.000000  1.000000  1.000000  1.000000
 FoFCou: FMM=F IPFlag=           0 FMFlag=      100000 FMFlg1=           0
         NFxFlg=           0 DoJE=T BraDBF=F KetDBF=T FulRan=T
         wScrn=  0.000000 ICntrl=     500 IOpCl=  0 I1Cent=   200000004 NGrid=           0
         NMat0=    1 NMatS0=      1 NMatT0=    0 NMatD0=    1 NMtDS0=    0 NMtDT0=    0
 Petite list used in FoFCou.
 Harris En= -343.188221266606    
 JPrj=0 DoOrth=F DoCkMO=F.
 Leave Link  401 at Wed Sep 20 14:35:39 2023, MaxMem=    33554432 cpu:         0.3
 (Enter /mnt/storage/apps/eb/software/gaussian/09/l508.exe)
 Direct SCF.
 Tight linear equation convergence will be used.
 RHF wavefunction.
 Quadratic Convergence SCF Method.
 Line search only if initial step raises energy.
 Integral symmetry usage will be decided dynamically.
 ReadGW:  IGet=1 IStart=         402 Next=         402 LGW=           0.
 Keep R1 ints in memory in canonical form, NReq=17058061.
 FoFCou: FMM=F IPFlag=           0 FMFlag=           0 FMFlg1=           0
         NFxFlg=           0 DoJE=F BraDBF=F KetDBF=F FulRan=T
         wScrn=  0.000000 ICntrl=     600 IOpCl=  0 I1Cent=           0 NGrid=           0
         NMat0=    1 NMatS0=   5671 NMatT0=    0 NMatD0=    1 NMtDS0=    0 NMtDT0=    0
 Symmetry not used in FoFCou.
 Iteration   1 EE= -342.536793616048                                    Grad=9.319D-01 Max rot=    6.9165 deg.
 Gradient too large for Newton-Raphson -- use scaled steepest descent instead.
 Alpha Gap=     0.545 HL deriv= 4.86D-03
     ILin= 1 X=0.000D+00 Y=-3.425367936160D+02 DE= 0.00D+00 F= -6.81D-01
     ILin= 2 X=3.000D-01 Y=-3.426971970094D+02 DE=-1.60D-01 F= -3.87D-01
     ILin= 3 X=5.000D-01 Y=-3.427547941473D+02 DE=-2.18D-01 F= -1.89D-01
     ILin= 4 X=9.000D-01 Y=-3.427503605530D+02 DE=-2.14D-01 F=  2.11D-01
     An  expanding polynomial of degree  4 produced  0.6892
 Iteration   2 EE= -342.772627452405     Delta-E=       -0.235833836356 Grad=2.944D-01 Max rot=    2.6373 deg.
 Gradient too large for Newton-Raphson -- use scaled steepest descent instead.
 Alpha Gap=     0.633 HL deriv= 2.72D-03
     ILin= 1 X=0.000D+00 Y=-3.427726274524D+02 DE= 0.00D+00 F= -2.80D-02
     ILin= 2 X=5.000D-01 Y=-3.427826962074D+02 DE=-1.01D-02 F= -1.23D-02
     ILin= 3 X=9.000D-01 Y=-3.427851072192D+02 DE=-1.25D-02 F=  2.21D-04
     ILin= 4 X=1.800D+00 Y=-3.427723262423D+02 DE= 3.01D-04 F=  2.81D-02
     An  expanding polynomial of degree  4 produced  0.8929
     Minimum is close to point  3 DX= -7.06D-03 DF= -7.77D-07 DXR=  7.90D-03 DFR=  6.22D-05 which will be used.
 Iteration   3 EE= -342.785107219174     Delta-E=       -0.012479766769 Grad=6.419D-02 Max rot=    0.4001 deg.
 Gradient too large for Newton-Raphson -- use scaled steepest descent instead.
 Alpha Gap=     0.626 HL deriv= 8.96D-05
     ILin= 1 X=0.000D+00 Y=-3.427851072192D+02 DE= 0.00D+00 F= -3.75D-03
     ILin= 2 X=8.000D-01 Y=-3.427864109597D+02 DE=-1.30D-03 F=  4.94D-04
     Accept linear search using points  1 and  2.
     An  expanding polynomial of degree  2 produced  0.6549
 Iteration   4 EE= -342.786426815903     Delta-E=       -0.001319596729 Grad=2.212D-02 Max rot=    0.1477 deg.
 Gradient too large for Newton-Raphson -- use scaled steepest descent instead.
 Alpha Gap=     0.631 HL deriv= 3.74D-04
     ILin= 1 X=0.000D+00 Y=-3.427864268159D+02 DE= 0.00D+00 F= -3.96D-04
     ILin= 2 X=8.000D-01 Y=-3.427866348166D+02 DE=-2.08D-04 F= -1.24D-04
     Reject lnstep minimum 1.779D+00 FVal=-3.427867545895D+02 Lims=  0.00D+00  8.00D-01
     ILin= 3 X=1.500D+00 Y=-3.427866385486D+02 DE=-2.12D-04 F=  1.13D-04
     Accept linear search using points  2 and  3.
     An  expanding polynomial of degree  3 produced  1.1586
 Iteration   5 EE= -342.786657506101     Delta-E=       -0.000230690198 Grad=8.207D-03 Max rot=    0.0470 deg.
 QCNR:  CnvC1=6.36D-09 CnvC2=6.36D-08
 LinEq1:  Iter=  0 NonCon=     1 RMS=8.49D-05 Max=6.42D-04 NDo=     1
 AX will form     1 AO Fock derivatives at one time.
 LinEq1:  Iter=  1 NonCon=     1 RMS=3.95D-05 Max=4.56D-04 NDo=     1
 LinEq1:  Iter=  2 NonCon=     1 RMS=3.50D-06 Max=3.24D-05 NDo=     1
 LinEq1:  Iter=  3 NonCon=     1 RMS=7.92D-07 Max=6.91D-06 NDo=     1
 LinEq1:  Iter=  4 NonCon=     1 RMS=2.91D-07 Max=3.09D-06 NDo=     1
 LinEq1:  Iter=  5 NonCon=     1 RMS=7.12D-08 Max=5.09D-07 NDo=     1
 LinEq1:  Iter=  6 NonCon=     1 RMS=2.72D-08 Max=2.53D-07 NDo=     1
 LinEq1:  Iter=  7 NonCon=     0 RMS=6.28D-09 Max=4.97D-08 NDo=     1
 Linear equations converged to 6.364D-09 6.364D-08 after     7 iterations.
 Angle between quadratic step and gradient=  43.78 degrees.
     ILin= 1 X=0.000D+00 Y=-3.427866575061D+02 DE= 0.00D+00 F= -6.53D-05
     ILin= 2 X=1.000D+00 Y=-3.427866901333D+02 DE=-3.26D-05 F=  1.70D-08
     Accept linear search using points  1 and  2.
     An  expanding polynomial of degree  2 produced  0.9997
     Minimum is close to point  2 DX= -2.61D-04 DF= -2.22D-12 DXR=  2.61D-04 DFR=  6.79D-08 which will be used.
 Iteration   6 EE= -342.786690133258     Delta-E=       -0.000032627157 Grad=4.914D-06 Max rot=    0.0000 deg.
 QCNR:  CnvC1=4.91D-11 CnvC2=4.91D-10
 LinEq1:  Iter=  0 NonCon=     1 RMS=7.15D-08 Max=8.89D-07 NDo=     1
 LinEq1:  Iter=  1 NonCon=     1 RMS=1.58D-08 Max=1.30D-07 NDo=     1
 LinEq1:  Iter=  2 NonCon=     1 RMS=4.60D-09 Max=4.11D-08 NDo=     1
 LinEq1:  Iter=  3 NonCon=     1 RMS=1.12D-09 Max=6.18D-09 NDo=     1
 LinEq1:  Iter=  4 NonCon=     1 RMS=4.21D-10 Max=3.14D-09 NDo=     1
 LinEq1:  Iter=  5 NonCon=     1 RMS=9.72D-11 Max=7.76D-10 NDo=     1
 LinEq1:  Iter=  6 NonCon=     0 RMS=2.26D-11 Max=2.58D-10 NDo=     1
 Linear equations converged to 4.914D-11 4.914D-10 after     6 iterations.
 Angle between quadratic step and gradient=  32.57 degrees.
     ILin= 1 X=0.000D+00 Y=-3.427866901333D+02 DE= 0.00D+00 F= -5.17D-11
     ILin= 2 X=1.000D+00 Y=-3.427866901333D+02 DE=-1.84D-11
 Iteration   7 EE= -342.786690133276     Delta-E=       -0.000000000018 Grad=4.082D-09 Max rot=    0.0000 deg.
 Rotation gradient small -- convergence achieved.
 SCF Done:  E(RHF) =  -342.786690133     a.u. after    7 cycles
            Convg  =    0.4082D-08                    28 Fock formations.
              S**2 =  0.0000                  -V/T =  2.0022
 Leave Link  508 at Wed Sep 20 14:35:41 2023, MaxMem=    33554432 cpu:         1.4
 (Enter /mnt/storage/apps/eb/software/gaussian/09/l601.exe)
 Copying SCF densities to generalized density rwf, IOpCl= 0 IROHF=0.

 **********************************************************************

            Population analysis using the SCF density.

 **********************************************************************

 Orbital symmetries:
       Occupied  (A) (A) (A) (A) (A) (A) (A) (A) (A) (A) (A) (A)
                 (A) (A) (A) (A) (A) (A) (A) (A) (A) (A) (A) (A)
                 (A)
       Virtual   (A) (A) (A) (A) (A) (A) (A) (A) (A) (A) (A) (A)
                 (A) (A) (A) (A) (A) (A) (A) (A) (A) (A) (A) (A)
                 (A) (A) (A) (A) (A) (A) (A) (A) (A) (A) (A) (A)
                 (A) (A) (A) (A) (A) (A) (A) (A) (A) (A) (A) (A)
                 (A) (A) (A) (A) (A) (A) (A) (A) (A) (A) (A) (A)
                 (A) (A) (A) (A) (A) (A) (A) (A) (A) (A) (A) (A)
                 (A) (A) (A) (A) (A) (A) (A) (A) (A)
 The electronic state is 1-A.
 Alpha  occ. eigenvalues --  -20.57575 -20.56747 -20.55983 -11.27785 -11.27387
 Alpha  occ. eigenvalues --  -11.26556  -1.38755  -1.36648  -1.35069  -1.01551
 Alpha  occ. eigenvalues --   -0.91597  -0.81406  -0.71444  -0.70281  -0.68678
 Alpha  occ. eigenvalues --   -0.64383  -0.61790  -0.59065  -0.56502  -0.54482
 Alpha  occ. eigenvalues --   -0.50301  -0.49237  -0.47499  -0.44651  -0.39744
 Alpha virt. eigenvalues --    0.18982   0.21278   0.24779   0.27897   0.29701
 Alpha virt. eigenvalues --    0.31300   0.33152   0.35280   0.39356   0.41400
 Alpha virt. eigenvalues --    0.43468   0.45164   0.51163   0.74666   0.80221
 Alpha virt. eigenvalues --    0.80920   0.82053   0.84274   0.87620   0.91174
 Alpha virt. eigenvalues --    0.95664   1.02351   1.04152   1.06883   1.08546
 Alpha virt. eigenvalues --    1.09541   1.13292   1.14439   1.15324   1.17635
 Alpha virt. eigenvalues --    1.18451   1.21255   1.24689   1.27166   1.30834
 Alpha virt. eigenvalues --    1.36044   1.36812   1.41035   1.45700   1.47983
 Alpha virt. eigenvalues --    1.58754   1.64275   1.67293   1.75025   1.76338
 Alpha virt. eigenvalues --    1.86828   1.89851   1.92883   1.96604   2.03870
 Alpha virt. eigenvalues --    2.06961   2.10360   2.15954   2.23981   2.28758
 Alpha virt. eigenvalues --    2.38870   2.39906   2.43841   2.46927   2.49818
 Alpha virt. eigenvalues --    2.53241   2.60113   2.65530   2.68554   2.71170
 Alpha virt. eigenvalues --    2.76047   2.78438   2.83533   2.89586   2.96423
 Alpha virt. eigenvalues --    3.01866   3.12354   3.21465   3.26552   3.30333
 Alpha virt. eigenvalues --    4.12869   4.21970   4.35032   4.69585   4.78170
 Alpha virt. eigenvalues --    4.98341
          Condensed to atoms (all electrons):
               1          2          3          4          5          6
     1  O    8.436700   0.169492  -0.056552   0.002301  -0.009840   0.000026
     2  C    0.169492   4.959374   0.341349  -0.043132  -0.081300   0.001274
     3  C   -0.056552   0.341349   4.905558   0.203996   0.341937  -0.077388
     4  O    0.002301  -0.043132   0.203996   8.407544  -0.057919   0.002331
     5  C   -0.009840  -0.081300   0.341937  -0.057919   4.950189   0.189720
     6  O    0.000026   0.001274  -0.077388   0.002331   0.189720   8.413100
     7  H    0.256673  -0.029852  -0.002033   0.000012  -0.000545  -0.000004
     8  H   -0.034773   0.404569  -0.049044   0.003837   0.006403   0.000184
     9  H   -0.035137   0.396278  -0.044066   0.002029  -0.011754   0.009784
    10  H    0.000897  -0.042407   0.392268  -0.032799  -0.058641   0.003644
    11  H    0.000078  -0.005890  -0.029314   0.261908  -0.003534   0.004251
    12  H    0.000167   0.006865  -0.057938   0.000978   0.401377  -0.034738
    13  H    0.006402  -0.006978  -0.042933   0.003133   0.384853  -0.026983
    14  H    0.001499   0.001690  -0.001017   0.000085  -0.025827   0.255254
               7          8          9         10         11         12
     1  O    0.256673  -0.034773  -0.035137   0.000897   0.000078   0.000167
     2  C   -0.029852   0.404569   0.396278  -0.042407  -0.005890   0.006865
     3  C   -0.002033  -0.049044  -0.044066   0.392268  -0.029314  -0.057938
     4  O    0.000012   0.003837   0.002029  -0.032799   0.261908   0.000978
     5  C   -0.000545   0.006403  -0.011754  -0.058641  -0.003534   0.401377
     6  O   -0.000004   0.000184   0.009784   0.003644   0.004251  -0.034738
     7  H    0.337028  -0.007641   0.005705   0.004447   0.000020  -0.000086
     8  H   -0.007641   0.545990  -0.028009  -0.004924   0.000072  -0.000058
     9  H    0.005705  -0.028009   0.525191   0.004646   0.003424   0.000005
    10  H    0.004447  -0.004924   0.004646   0.582204   0.005232  -0.000395
    11  H    0.000020   0.000072   0.003424   0.005232   0.312248  -0.000134
    12  H   -0.000086  -0.000058   0.000005  -0.000395  -0.000134   0.532734
    13  H    0.000139   0.000011   0.001432   0.004687   0.000050  -0.021863
    14  H   -0.000063   0.000095  -0.001734  -0.000175  -0.000076   0.004547
              13         14
     1  O    0.006402   0.001499
     2  C   -0.006978   0.001690
     3  C   -0.042933  -0.001017
     4  O    0.003133   0.000085
     5  C    0.384853  -0.025827
     6  O   -0.026983   0.255254
     7  H    0.000139  -0.000063
     8  H    0.000011   0.000095
     9  H    0.001432  -0.001734
    10  H    0.004687  -0.000175
    11  H    0.000050  -0.000076
    12  H   -0.021863   0.004547
    13  H    0.532101  -0.009916
    14  H   -0.009916   0.330750
 Mulliken charges:
               1
     1  O   -0.737934
     2  C   -0.071332
     3  C    0.175178
     4  O   -0.754306
     5  C   -0.025118
     6  O   -0.740454
     7  H    0.436198
     8  H    0.163289
     9  H    0.172207
    10  H    0.141315
    11  H    0.451665
    12  H    0.168539
    13  H    0.175864
    14  H    0.444889
 Sum of Mulliken charges =   0.00000
 Mulliken charges with hydrogens summed into heavy atoms:
               1
     1  O   -0.301736
     2  C    0.264164
     3  C    0.316493
     4  O   -0.302641
     5  C    0.319285
     6  O   -0.295566
 Electronic spatial extent (au):  <R**2>=            581.1128
 Charge=              0.0000 electrons
 Dipole moment (field-independent basis, Debye):
    X=             -2.2357    Y=              0.1630    Z=             -0.0417  Tot=              2.2420
 Quadrupole moment (field-independent basis, Debye-Ang):
   XX=            -40.7304   YY=            -38.0654   ZZ=            -31.9419
   XY=             -2.6933   XZ=             -2.9898   YZ=             -1.1724
 Traceless Quadrupole moment (field-independent basis, Debye-Ang):
   XX=             -3.8179   YY=             -1.1528   ZZ=              4.9707
   XY=             -2.6933   XZ=             -2.9898   YZ=             -1.1724
 Octapole moment (field-independent basis, Debye-Ang**2):
  XXX=             -7.3533  YYY=            -12.5955  ZZZ=             -4.3593  XYY=             -5.3552
  XXY=             10.4622  XXZ=              7.0498  XZZ=             -0.7111  YZZ=              1.3069
  YYZ=             -7.4754  XYZ=             -5.4228
 Hexadecapole moment (field-independent basis, Debye-Ang**3):
 XXXX=           -329.6337 YYYY=           -238.5112 ZZZZ=           -105.9643 XXXY=             -6.9478
 XXXZ=            -24.9258 YYYX=             -0.7300 YYYZ=              4.6862 ZZZX=            -10.9813
 ZZZY=              2.6060 XXYY=           -107.6970 XXZZ=            -63.5565 YYZZ=            -49.7104
 XXYZ=             -6.9016 YYXZ=             -6.6845 ZZXY=              5.4015
 N-N= 2.710587628606D+02 E-N=-1.350227498248D+03  KE= 3.420389197446D+02
 No NMR shielding tensors so no spin-rotation constants.
 Leave Link  601 at Wed Sep 20 14:35:41 2023, MaxMem=    33554432 cpu:         0.1
 (Enter /mnt/storage/apps/eb/software/gaussian/09/l701.exe)
 Compute integral first derivatives.
 ... and contract with generalized density number  0.
 Leave Link  701 at Wed Sep 20 14:35:41 2023, MaxMem=    33554432 cpu:         0.1
 (Enter /mnt/storage/apps/eb/software/gaussian/09/l702.exe)
 L702 exits ... SP integral derivatives will be done elsewhere.
 Leave Link  702 at Wed Sep 20 14:35:41 2023, MaxMem=    33554432 cpu:         0.0
 (Enter /mnt/storage/apps/eb/software/gaussian/09/l703.exe)
 Compute integral first derivatives, UseDBF=F ICtDFT=           0.
 Integral derivatives from FoFJK, PRISM(SPDF).
 Calling FoFJK, ICntrl=      2127 FMM=F ISym2X=0 I1Cent= 0 IOpClX= 0 NMat=1 NMatS=1 NMatT=0.
 FoFJK:  IHMeth= 1 ICntrl=    2127 DoSepK=F KAlg= 0 I1Cent=   0 FoldK=F
 IRaf=         0 NMat=   1 IRICut=       1 DoRegI=T DoRafI=F ISym2E= 0.
 FoFCou: FMM=F IPFlag=           0 FMFlag=      100000 FMFlg1=         800
         NFxFlg=           0 DoJE=F BraDBF=F KetDBF=F FulRan=T
         wScrn=  0.000000 ICntrl=    2127 IOpCl=  0 I1Cent=           0 NGrid=           0
         NMat0=    1 NMatS0=      1 NMatT0=    0 NMatD0=    1 NMtDS0=    0 NMtDT0=    0
 Symmetry not used in FoFCou.
 Leave Link  703 at Wed Sep 20 14:35:43 2023, MaxMem=    33554432 cpu:         1.5
 (Enter /mnt/storage/apps/eb/software/gaussian/09/l716.exe)
 Dipole        =-8.79596596D-01 6.41349587D-02-1.63885757D-02
 ***** Axes restored to original set *****
 -------------------------------------------------------------------
 Center     Atomic                   Forces (Hartrees/Bohr)
 Number     Number              X              Y              Z
 -------------------------------------------------------------------
      1        8           0.048971446   -0.012975325    0.025567739
      2        6           0.012328864   -0.005152003   -0.007602718
      3        6           0.015013101    0.015751448   -0.003966121
      4        8          -0.026435393   -0.025771888   -0.028269645
      5        6          -0.003085700   -0.023056683    0.032107550
      6        8           0.024221950    0.050736423   -0.035401102
      7        1          -0.029643550    0.027376847   -0.033403174
      8        1          -0.014521579   -0.001927645   -0.003502080
      9        1           0.008700152   -0.009120032    0.012850026
     10        1          -0.013443575   -0.001112394   -0.008321801
     11        1           0.018298828    0.010965143    0.038067389
     12        1           0.012533791    0.012506339   -0.018322077
     13        1          -0.019462412   -0.005484891    0.003036980
     14        1          -0.033475924   -0.032735340    0.027159033
 -------------------------------------------------------------------
 Cartesian Forces:  Max     0.050736423 RMS     0.022647201
 Leave Link  716 at Wed Sep 20 14:35:43 2023, MaxMem=    33554432 cpu:         0.0
 (Enter /mnt/storage/apps/eb/software/gaussian/09/l103.exe)

 GradGradGradGradGradGradGradGradGradGradGradGradGradGradGradGradGradGrad
 Berny optimization.
 FormGI is forming the generalized inverse of G from B-inverse, IUseBI=4.
 Internal  Forces:  Max     0.053762141 RMS     0.015696151
 Search for a local minimum.
 Step number   1 out of a maximum of  100
 All quantities printed in internal units (Hartrees-Bohrs-Radians)
 RMS Force = .15696D-01 SwitMx=.10000D-02 MixMth= 1
 Mixed Optimization -- RFO/linear search
 Second derivative matrix not updated -- first step.
 ITU=  0
     Eigenvalues ---    0.00372   0.00562   0.01722   0.01793   0.02057
     Eigenvalues ---    0.04794   0.05287   0.05452   0.05669   0.05698
     Eigenvalues ---    0.06392   0.06682   0.10793   0.11495   0.13509
     Eigenvalues ---    0.13536   0.15892   0.16000   0.16000   0.16000
     Eigenvalues ---    0.20395   0.22004   0.22203   0.29445   0.30815
     Eigenvalues ---    0.31544   0.32678   0.33088   0.33452   0.34271
     Eigenvalues ---    0.45998   0.46909   0.47092   0.47316   0.49807
     Eigenvalues ---    0.50515
 RFO step:  Lambda=-4.59311390D-02 EMin= 3.72149350D-03
 Linear search not attempted -- first point.
 Maximum step size (   0.300) exceeded in Quadratic search.
    -- Step size scaled by   0.849
 Iteration  1 RMS(Cart)=  0.13206836 RMS(Int)=  0.00648713
 Iteration  2 RMS(Cart)=  0.00897967 RMS(Int)=  0.00111362
 Iteration  3 RMS(Cart)=  0.00006950 RMS(Int)=  0.00111271
 Iteration  4 RMS(Cart)=  0.00000002 RMS(Int)=  0.00111271
 ITry= 1 IFail=0 DXMaxC= 3.24D-01 DCOld= 1.00D+10 DXMaxT= 3.00D-01 DXLimC= 3.00D+00 Rises=F
 Variable       Old X    -DE/DX   Delta X   Delta X   Delta X     New X
                                 (Linear)    (Quad)   (Total)
    R1        2.64134   0.02125   0.00000   0.03567   0.03567   2.67701
    R2        1.89375  -0.05186   0.00000  -0.08482  -0.08482   1.80893
    R3        2.86366   0.01965   0.00000   0.04712   0.04712   2.91079
    R4        2.06875  -0.00560   0.00000  -0.01223  -0.01223   2.05653
    R5        2.08898  -0.01752   0.00000  -0.03947  -0.03947   2.04951
    R6        2.59350   0.01510   0.00000   0.02326   0.02326   2.61675
    R7        2.89085   0.01116   0.00000   0.02783   0.02783   2.91867
    R8        2.09621  -0.01416   0.00000  -0.03226  -0.03226   2.06395
    R9        1.86761  -0.04258   0.00000  -0.06646  -0.06646   1.80115
   R10        2.63120   0.01575   0.00000   0.02597   0.02597   2.65716
   R11        2.11687  -0.02355   0.00000  -0.05533  -0.05533   2.06155
   R12        2.08264  -0.01754   0.00000  -0.03915  -0.03915   2.04350
   R13        1.89619  -0.05376   0.00000  -0.08832  -0.08832   1.80788
    A1        1.83939   0.01398   0.00000   0.05763   0.05763   1.89701
    A2        1.85172   0.03241   0.00000   0.11688   0.11658   1.96830
    A3        1.86193  -0.00251   0.00000   0.02978   0.02996   1.89189
    A4        1.87638  -0.01068   0.00000  -0.02458  -0.02370   1.85267
    A5        1.97778  -0.01127   0.00000  -0.04443  -0.04790   1.92989
    A6        1.95865  -0.00704   0.00000  -0.03377  -0.03529   1.92336
    A7        1.93010   0.00063   0.00000  -0.03251  -0.03528   1.89483
    A8        1.97337  -0.00789   0.00000  -0.01783  -0.01756   1.95582
    A9        1.85114   0.02914   0.00000   0.11536   0.11506   1.96621
   A10        1.86701  -0.00545   0.00000  -0.00828  -0.00939   1.85762
   A11        1.95560  -0.01251   0.00000  -0.03888  -0.03983   1.91577
   A12        1.90578   0.00197   0.00000  -0.03413  -0.03534   1.87044
   A13        1.90777  -0.00464   0.00000  -0.01218  -0.01418   1.89359
   A14        1.98757  -0.01532   0.00000  -0.06315  -0.06315   1.92441
   A15        1.86749   0.02071   0.00000   0.07408   0.07309   1.94058
   A16        1.84447   0.00311   0.00000   0.02665   0.02684   1.87132
   A17        1.89010   0.00293   0.00000   0.02958   0.02949   1.91959
   A18        1.90404  -0.00883   0.00000  -0.03606  -0.03815   1.86590
   A19        1.97983  -0.00981   0.00000  -0.03538  -0.03782   1.94200
   A20        1.97006  -0.00539   0.00000  -0.04618  -0.04761   1.92245
   A21        1.85323   0.01167   0.00000   0.04811   0.04811   1.90134
    D1        1.27614  -0.00011   0.00000   0.00782   0.00965   1.28579
    D2       -0.83748  -0.00266   0.00000  -0.01707  -0.01953  -0.85701
    D3       -2.90828   0.00341   0.00000   0.01795   0.01858  -2.88970
    D4        3.14158  -0.00034   0.00000   0.01358   0.01399  -3.12761
    D5        0.99179  -0.00008   0.00000  -0.00703  -0.00690   0.98489
    D6       -1.04310  -0.00631   0.00000  -0.04510  -0.04517  -1.08827
    D7       -1.10437   0.01087   0.00000   0.09916   0.09817  -1.00620
    D8        3.02902   0.01113   0.00000   0.07856   0.07729   3.10630
    D9        0.99413   0.00490   0.00000   0.04048   0.03902   1.03314
   D10        1.09715  -0.00339   0.00000  -0.00973  -0.00840   1.08875
   D11       -1.05265  -0.00312   0.00000  -0.03034  -0.02928  -1.08193
   D12       -3.08754  -0.00935   0.00000  -0.06841  -0.06755   3.12809
   D13       -0.66207  -0.01401   0.00000  -0.08671  -0.08613  -0.74820
   D14        1.42878   0.00918   0.00000   0.02232   0.02149   1.45026
   D15       -2.73828  -0.00349   0.00000  -0.04180  -0.04154  -2.77982
   D16        1.11373  -0.00169   0.00000  -0.01069  -0.01086   1.10287
   D17        3.14135  -0.00071   0.00000  -0.00487  -0.00463   3.13672
   D18       -1.02644  -0.00379   0.00000  -0.02881  -0.02976  -1.05619
   D19       -1.04722  -0.00397   0.00000  -0.04297  -0.04245  -1.08966
   D20        0.98040  -0.00300   0.00000  -0.03715  -0.03622   0.94419
   D21        3.09580  -0.00607   0.00000  -0.06110  -0.06134   3.03446
   D22        3.12100   0.00491   0.00000   0.03390   0.03391  -3.12828
   D23       -1.13457   0.00589   0.00000   0.03972   0.04014  -1.09443
   D24        0.98082   0.00281   0.00000   0.01577   0.01502   0.99584
   D25       -1.75524  -0.00134   0.00000  -0.01483  -0.01476  -1.77000
   D26        2.54028  -0.01130   0.00000  -0.06637  -0.06426   2.47602
   D27        0.32797   0.01033   0.00000   0.05044   0.04827   0.37624
         Item               Value     Threshold  Converged?
 Maximum Force            0.053762     0.000015     NO 
 RMS     Force            0.015696     0.000010     NO 
 Maximum Displacement     0.323928     0.000060     NO 
 RMS     Displacement     0.132248     0.000040     NO 
 Predicted change in Energy=-2.564791D-02
 Lowest energy point so far.  Saving SCF results.
 GradGradGradGradGradGradGradGradGradGradGradGradGradGradGradGradGradGrad

 Leave Link  103 at Wed Sep 20 14:35:43 2023, MaxMem=    33554432 cpu:         0.0
 (Enter /mnt/storage/apps/eb/software/gaussian/09/l202.exe)
                          Input orientation:                          
 ---------------------------------------------------------------------
 Center     Atomic      Atomic             Coordinates (Angstroms)
 Number     Number       Type             X           Y           Z
 ---------------------------------------------------------------------
      1          8           0        1.866443    0.521905   -0.574549
      2          6           0        0.877963   -0.479650   -0.737576
      3          6           0       -0.082303   -0.570792    0.463332
      4          8           0       -1.030917   -1.565638    0.296362
      5          6           0       -0.781777    0.771883    0.768984
      6          8           0       -1.598475    1.174873   -0.302347
      7          1           0        2.509451    0.216965    0.065660
      8          1           0        1.377980   -1.432400   -0.900595
      9          1           0        0.329850   -0.219084   -1.636428
     10          1           0        0.527323   -0.848145    1.326073
     11          1           0       -1.370469   -1.551825   -0.594124
     12          1           0       -1.438776    0.606443    1.624025
     13          1           0       -0.044862    1.526940    1.006072
     14          1           0       -1.141429    1.848527   -0.804889
 ---------------------------------------------------------------------
                    Distance matrix (angstroms):
                    1          2          3          4          5
     1  O    0.000000
     2  C    1.416610   0.000000
     3  C    2.463492   1.540323   0.000000
     4  O    3.675734   2.427389   1.384726   0.000000
     5  C    2.980041   2.567254   1.544495   2.397800   0.000000
     6  O    3.536399   3.009919   2.435649   2.861987   1.406110
     7  H    0.957244   1.947361   2.737862   3.970529   3.410979
     8  H    2.040640   1.088267   2.176026   2.693185   3.508691
     9  H    2.009420   1.084554   2.168538   2.720399   2.829088
    10  H    2.698638   2.125413   1.092195   2.000803   2.156057
    11  H    3.844260   2.495111   1.933911   0.953127   2.757579
    12  H    3.970560   3.481958   2.138483   2.578172   1.090923
    13  H    2.676107   2.813951   2.167129   3.322654   1.081372
    14  H    3.295493   3.082675   2.929716   3.589079   1.940512
                    6          7          8          9         10
     6  O    0.000000
     7  H    4.234155   0.000000
     8  H    4.001882   2.221324   0.000000
     9  H    2.727879   2.799625   1.764132   0.000000
    10  H    3.356094   2.579134   2.454185   3.034983   0.000000
    11  H    2.751727   4.314824   2.768060   2.398683   2.789970
    12  H    2.014826   4.262475   4.297058   3.800011   2.463767
    13  H    2.061462   3.020749   3.797046   3.189329   2.463905
    14  H    0.956687   4.092527   4.137761   2.670418   3.820703
                   11         12         13         14
    11  H    0.000000
    12  H    3.095637   0.000000
    13  H    3.714385   1.781061   0.000000
    14  H    3.414568   2.744233   2.141368   0.000000
 Stoichiometry    C3H8O3
 Framework group  C1[X(C3H8O3)]
 Deg. of freedom    36
 Full point group                 C1      NOp   1
 RotChk:  IX=0 Diff= 2.20D-01
 Largest Abelian subgroup         C1      NOp   1
 Largest concise Abelian subgroup C1      NOp   1
                         Standard orientation:                         
 ---------------------------------------------------------------------
 Center     Atomic      Atomic             Coordinates (Angstroms)
 Number     Number       Type             X           Y           Z
 ---------------------------------------------------------------------
      1          8           0       -2.000040   -0.680085    0.050478
      2          6           0       -1.164698    0.343939   -0.459779
      3          6           0        0.064236    0.609693    0.429991
      4          8           0        0.860663    1.624732   -0.072868
      5          6           0        0.916729   -0.657356    0.660874
      6          8           0        1.455795   -1.134239   -0.547073
      7          1           0       -2.476175   -0.338810    0.807539
      8          1           0       -1.759213    1.248662   -0.570931
      9          1           0       -0.850213    0.014311   -1.444006
     10          1           0       -0.320085    0.949168    1.394326
     11          1           0        0.958133    1.531113   -1.016365
     12          1           0        1.758537   -0.369565    1.292260
     13          1           0        0.324520   -1.416640    1.152954
     14          1           0        0.935565   -1.879157   -0.846586
 ---------------------------------------------------------------------
 Rotational constants (GHZ):      4.3373590      2.8694489      2.0774468
 Leave Link  202 at Wed Sep 20 14:35:43 2023, MaxMem=    33554432 cpu:         0.0
 (Enter /mnt/storage/apps/eb/software/gaussian/09/l301.exe)
 Standard basis: 6-31G(d) (6D, 7F)
 Ernie: Thresh=  0.10000D-02 Tol=  0.10000D-05 Strict=F.
 There are   106 symmetry adapted cartesian basis functions of A   symmetry.
 There are   106 symmetry adapted basis functions of A   symmetry.
   106 basis functions,   200 primitive gaussians,   106 cartesian basis functions
    25 alpha electrons       25 beta electrons
       nuclear repulsion energy       265.0720289635 Hartrees.
 IExCor=    0 DFT=F Ex=HF Corr=None ExCW=0 ScaHFX=  1.000000
 ScaDFX=  1.000000  1.000000  1.000000  1.000000 ScalE2=  1.000000  1.000000
 IRadAn=      0 IRanWt=     -1 IRanGd=            0 ICorTp=0 IEmpDi=  4
 NAtoms=   14 NActive=   14 NUniq=   14 SFac= 1.00D+00 NAtFMM=   60 NAOKFM=F Big=F
 Integral buffers will be    131072 words long.
 Raffenetti 1 integral format.
 Two-electron integral symmetry is turned on.
 Leave Link  301 at Wed Sep 20 14:35:43 2023, MaxMem=    33554432 cpu:         0.0
 (Enter /mnt/storage/apps/eb/software/gaussian/09/l302.exe)
 NPDir=0 NMtPBC=     1 NCelOv=     1 NCel=       1 NClECP=     1 NCelD=      1
         NCelK=      1 NCelE2=     1 NClLst=     1 CellRange=     0.0.
 One-electron integrals computed using PRISM.
 NBasis=   106 RedAO= T EigKep=  3.60D-03  NBF=   106
 NBsUse=   106 1.00D-06 EigRej= -1.00D+00 NBFU=   106
 Leave Link  302 at Wed Sep 20 14:35:43 2023, MaxMem=    33554432 cpu:         0.1
 (Enter /mnt/storage/apps/eb/software/gaussian/09/l303.exe)
 DipDrv:  MaxL=1.
 Leave Link  303 at Wed Sep 20 14:35:43 2023, MaxMem=    33554432 cpu:         0.0
 (Enter /mnt/storage/apps/eb/software/gaussian/09/l401.exe)
 Initial guess from the checkpoint file:  "/scratch/nca121/18446470/Gau-12822.chk"
 B after Tr=     0.000000    0.000000    0.000000
         Rot=    0.997540   -0.000093   -0.009105   -0.069502 Ang=  -8.04 deg.
 Guess basis will be translated and rotated to current coordinates.
 JPrj=2 DoOrth=T DoCkMO=T.
 Generating alternative initial guess.
 ExpMin= 1.61D-01 ExpMax= 5.48D+03 ExpMxC= 8.25D+02 IAcc=1 IRadAn=         1 AccDes= 0.00D+00
 Harris functional with IExCor=  205 and IRadAn=       1 diagonalized for initial guess.
 HarFok:  IExCor=  205 AccDes= 0.00D+00 IRadAn=         1 IDoV= 1 UseB2=F ITyADJ=14
 ICtDFT=  3500011 ScaDFX=  1.000000  1.000000  1.000000  1.000000
 FoFCou: FMM=F IPFlag=           0 FMFlag=      100000 FMFlg1=           0
         NFxFlg=           0 DoJE=T BraDBF=F KetDBF=T FulRan=T
         wScrn=  0.000000 ICntrl=     500 IOpCl=  0 I1Cent=   200000004 NGrid=           0
         NMat0=    1 NMatS0=      1 NMatT0=    0 NMatD0=    1 NMtDS0=    0 NMtDT0=    0
 Petite list used in FoFCou.
 Harris En= -343.195872529825    
 Leave Link  401 at Wed Sep 20 14:35:43 2023, MaxMem=    33554432 cpu:         0.3
 (Enter /mnt/storage/apps/eb/software/gaussian/09/l508.exe)
 Direct SCF.
 Tight linear equation convergence will be used.
 RHF wavefunction.
 Quadratic Convergence SCF Method.
 Line search only if initial step raises energy.
 Integral symmetry usage will be decided dynamically.
 ReadGW:  IGet=1 IStart=         402 Next=         402 LGW=           0.
 Keep R1 ints in memory in canonical form, NReq=17057047.
 FoFCou: FMM=F IPFlag=           0 FMFlag=           0 FMFlg1=           0
         NFxFlg=           0 DoJE=F BraDBF=F KetDBF=F FulRan=T
         wScrn=  0.000000 ICntrl=     600 IOpCl=  0 I1Cent=           0 NGrid=           0
         NMat0=    1 NMatS0=   5671 NMatT0=    0 NMatD0=    1 NMtDS0=    0 NMtDT0=    0
 Symmetry not used in FoFCou.
 Iteration   1 EE= -342.787235378335                                    Grad=1.581D-01 Max rot=    0.6982 deg.
 Gradient too large for Newton-Raphson -- use scaled steepest descent instead.
 Alpha Gap=     1.826 HL deriv= 1.68D-03
     ILin= 1 X=0.000D+00 Y=-3.427872353783D+02 DE= 0.00D+00 F= -2.09D-02
     ILin= 2 X=3.000D-01 Y=-3.427928070748D+02 DE=-5.57D-03 F= -1.63D-02
     ILin= 3 X=6.000D-01 Y=-3.427969992837D+02 DE=-9.76D-03 F= -1.17D-02
     ILin= 4 X=1.200D+00 Y=-3.428012455735D+02 DE=-1.40D-02 F= -2.48D-03
     ILin= 5 X=2.400D+00 Y=-3.427931932567D+02 DE=-5.96D-03 F=  1.59D-02
     An  expanding polynomial of degree  5 produced  1.3619
 Iteration   2 EE= -342.801446250191     Delta-E=       -0.014210871857 Grad=8.668D-02 Max rot=    0.4357 deg.
 Gradient too large for Newton-Raphson -- use scaled steepest descent instead.
 Alpha Gap=     1.827 HL deriv= 3.94D-04
     ILin= 1 X=0.000D+00 Y=-3.428014462502D+02 DE= 0.00D+00 F= -6.21D-03
     ILin= 2 X=6.000D-01 Y=-3.428039811555D+02 DE=-2.53D-03 F= -2.24D-03
     ILin= 3 X=1.300D+00 Y=-3.428039287139D+02 DE=-2.48D-03 F=  2.39D-03
     An  expanding polynomial of degree  3 produced  0.9387
 Iteration   3 EE= -342.804360533758     Delta-E=       -0.002914283566 Grad=4.756D-02 Max rot=    0.2472 deg.
 Gradient too large for Newton-Raphson -- use scaled steepest descent instead.
 Alpha Gap=     1.826 HL deriv= 1.06D-03
     ILin= 1 X=0.000D+00 Y=-3.428043605338D+02 DE= 0.00D+00 F= -2.00D-03
     ILin= 2 X=1.100D+00 Y=-3.428053132709D+02 DE=-9.53D-04 F=  2.64D-04
     Accept linear search using points  1 and  2.
     An  expanding polynomial of degree  2 produced  0.9941
 Iteration   4 EE= -342.805329734180     Delta-E=       -0.000969200423 Grad=3.790D-02 Max rot=    0.1601 deg.
 Gradient too large for Newton-Raphson -- use scaled steepest descent instead.
 Alpha Gap=     1.826 HL deriv= 5.39D-05
     ILin= 1 X=0.000D+00 Y=-3.428053297342D+02 DE= 0.00D+00 F= -1.22D-03
     ILin= 2 X=1.000D+00 Y=-3.428057777256D+02 DE=-4.48D-04 F=  3.22D-04
     Accept linear search using points  1 and  2.
     An  expanding polynomial of degree  2 produced  0.7909
 Iteration   5 EE= -342.805811413248     Delta-E=       -0.000481679068 Grad=2.442D-02 Max rot=    0.1282 deg.
 Gradient too large for Newton-Raphson -- use scaled steepest descent instead.
 Alpha Gap=     1.826 HL deriv= 6.20D-04
     ILin= 1 X=0.000D+00 Y=-3.428058114132D+02 DE= 0.00D+00 F= -5.36D-04
     ILin= 2 X=9.000D-01 Y=-3.428060683166D+02 DE=-2.57D-04 F= -3.46D-05
     Reject lnstep minimum 9.955D-01 FVal=-3.428060701232D+02 Lims=  0.00D+00  9.00D-01
     ILin= 3 X=1.800D+00 Y=-3.428058736128D+02 DE=-6.22D-05 F=  4.67D-04
     An  expanding polynomial of degree  3 produced  0.9620
     Minimum is close to point  2 DX=  6.20D-02 DF= -1.07D-06 DXR=  6.44D-02 DFR=  4.17D-03 which will be used.
 Iteration   6 EE= -342.806068316614     Delta-E=       -0.000256903365 Grad=1.971D-02 Max rot=    0.1075 deg.
 Gradient too large for Newton-Raphson -- use scaled steepest descent instead.
 Alpha Gap=     1.826 HL deriv= 9.87D-05
     ILin= 1 X=0.000D+00 Y=-3.428060683166D+02 DE= 0.00D+00 F= -3.35D-04
     ILin= 2 X=9.000D-01 Y=-3.428062142401D+02 DE=-1.46D-04 F=  1.07D-05
     Accept linear search using points  1 and  2.
     An  expanding polynomial of degree  2 produced  0.8626
     Minimum is close to point  2 DX= -3.74D-02 DF= -2.22D-07 DXR=  4.34D-02 DFR=  1.52D-03 which will be used.
 Iteration   7 EE= -342.806214240145     Delta-E=       -0.000145923531 Grad=1.565D-02 Max rot=    0.1061 deg.
 Gradient too large for Newton-Raphson -- use scaled steepest descent instead.
 Alpha Gap=     1.826 HL deriv= 3.93D-04
     ILin= 1 X=0.000D+00 Y=-3.428062142401D+02 DE= 0.00D+00 F= -2.21D-04
     ILin= 2 X=9.000D-01 Y=-3.428062995309D+02 DE=-8.53D-05 F=  3.19D-05
     Accept linear search using points  1 and  2.
     An  expanding polynomial of degree  2 produced  0.7609
 Iteration   8 EE= -342.806301248783     Delta-E=       -0.000087008638 Grad=1.111D-02 Max rot=    0.0670 deg.
 Gradient too large for Newton-Raphson -- use scaled steepest descent instead.
 Alpha Gap=     1.826 HL deriv= 1.39D-04
     ILin= 1 X=0.000D+00 Y=-3.428063012488D+02 DE= 0.00D+00 F= -1.07D-04
     ILin= 2 X=8.000D-01 Y=-3.428063526077D+02 DE=-5.14D-05 F= -2.11D-05
     Reject lnstep minimum 1.940D+00 FVal=-3.428063739425D+02 Lims=  0.00D+00  8.00D-01
     ILin= 3 X=1.600D+00 Y=-3.428063350838D+02 DE=-3.38D-05 F=  6.50D-05
     An  expanding polynomial of degree  3 produced  0.9965
 Iteration   9 EE= -342.806354685154     Delta-E=       -0.000053436371 Grad=9.923D-03 Max rot=    0.0782 deg.
 QCNR:  CnvC1=6.36D-09 CnvC2=6.36D-08
 LinEq1:  Iter=  0 NonCon=     1 RMS=1.21D-04 Max=1.86D-03 NDo=     1
 AX will form     1 AO Fock derivatives at one time.
 LinEq1:  Iter=  1 NonCon=     1 RMS=1.34D-05 Max=1.44D-04 NDo=     1
 LinEq1:  Iter=  2 NonCon=     1 RMS=3.92D-06 Max=2.64D-05 NDo=     1
 LinEq1:  Iter=  3 NonCon=     1 RMS=1.38D-06 Max=1.40D-05 NDo=     1
 LinEq1:  Iter=  4 NonCon=     1 RMS=3.67D-07 Max=2.38D-06 NDo=     1
 LinEq1:  Iter=  5 NonCon=     1 RMS=1.28D-07 Max=1.02D-06 NDo=     1
 LinEq1:  Iter=  6 NonCon=     1 RMS=2.35D-08 Max=1.65D-07 NDo=     1
 LinEq1:  Iter=  7 NonCon=     0 RMS=6.25D-09 Max=4.33D-08 NDo=     1
 Linear equations converged to 6.364D-09 6.364D-08 after     7 iterations.
 Angle between quadratic step and gradient=  43.98 degrees.
     ILin= 1 X=0.000D+00 Y=-3.428063546852D+02 DE= 0.00D+00 F= -1.78D-04
     ILin= 2 X=1.000D+00 Y=-3.428064439158D+02 DE=-8.92D-05 F= -3.52D-08
     Reject lnstep minimum 1.000D+00 FVal=-3.428064439158D+02 Lims=  0.00D+00  1.00D+00
     ILin= 3 X=2.000D+00 Y=-3.428063547772D+02 DE=-9.21D-08 F=  1.78D-04
     An  expanding polynomial of degree  3 produced  1.0003
     Minimum is close to point  2 DX=  2.58D-04 DF= -5.97D-12 DXR=  2.58D-04 DFR=  6.69D-08 which will be used.
 Iteration  10 EE= -342.806443915793     Delta-E=       -0.000089230639 Grad=1.946D-05 Max rot=    0.0001 deg.
 QCNR:  CnvC1=1.95D-10 CnvC2=1.95D-09
 LinEq1:  Iter=  0 NonCon=     1 RMS=2.04D-07 Max=1.44D-06 NDo=     1
 LinEq1:  Iter=  1 NonCon=     1 RMS=6.27D-08 Max=5.82D-07 NDo=     1
 LinEq1:  Iter=  2 NonCon=     1 RMS=1.65D-08 Max=1.43D-07 NDo=     1
 LinEq1:  Iter=  3 NonCon=     1 RMS=5.04D-09 Max=4.99D-08 NDo=     1
 LinEq1:  Iter=  4 NonCon=     1 RMS=1.11D-09 Max=7.42D-09 NDo=     1
 LinEq1:  Iter=  5 NonCon=     1 RMS=2.50D-10 Max=2.71D-09 NDo=     1
 LinEq1:  Iter=  6 NonCon=     0 RMS=7.01D-11 Max=5.48D-10 NDo=     1
 Linear equations converged to 1.946D-10 1.946D-09 after     6 iterations.
 Angle between quadratic step and gradient=  35.53 degrees.
     ILin= 1 X=0.000D+00 Y=-3.428064439158D+02 DE= 0.00D+00 F= -3.46D-10
     ILin= 2 X=1.000D+00 Y=-3.428064439160D+02 DE=-1.73D-10
 Iteration  11 EE= -342.806443915967     Delta-E=       -0.000000000173 Grad=1.075D-08 Max rot=    0.0000 deg.
 Rotation gradient small -- convergence achieved.
 SCF Done:  E(RHF) =  -342.806443916     a.u. after   11 cycles
            Convg  =    0.1075D-07                    37 Fock formations.
              S**2 =  0.0000                  -V/T =  2.0019
 Leave Link  508 at Wed Sep 20 14:35:45 2023, MaxMem=    33554432 cpu:         1.6
 (Enter /mnt/storage/apps/eb/software/gaussian/09/l701.exe)
 Compute integral first derivatives.
 ... and contract with generalized density number  0.
 Leave Link  701 at Wed Sep 20 14:35:45 2023, MaxMem=    33554432 cpu:         0.1
 (Enter /mnt/storage/apps/eb/software/gaussian/09/l702.exe)
 L702 exits ... SP integral derivatives will be done elsewhere.
 Leave Link  702 at Wed Sep 20 14:35:45 2023, MaxMem=    33554432 cpu:         0.0
 (Enter /mnt/storage/apps/eb/software/gaussian/09/l703.exe)
 Compute integral first derivatives, UseDBF=F ICtDFT=           0.
 Integral derivatives from FoFJK, PRISM(SPDF).
 Calling FoFJK, ICntrl=      2127 FMM=F ISym2X=0 I1Cent= 0 IOpClX= 0 NMat=1 NMatS=1 NMatT=0.
 FoFJK:  IHMeth= 1 ICntrl=    2127 DoSepK=F KAlg= 0 I1Cent=   0 FoldK=F
 IRaf=         0 NMat=   1 IRICut=       1 DoRegI=T DoRafI=F ISym2E= 0.
 FoFCou: FMM=F IPFlag=           0 FMFlag=      100000 FMFlg1=         800
         NFxFlg=           0 DoJE=F BraDBF=F KetDBF=F FulRan=T
         wScrn=  0.000000 ICntrl=    2127 IOpCl=  0 I1Cent=           0 NGrid=           0
         NMat0=    1 NMatS0=      1 NMatT0=    0 NMatD0=    1 NMtDS0=    0 NMtDT0=    0
 Symmetry not used in FoFCou.
 Leave Link  703 at Wed Sep 20 14:35:46 2023, MaxMem=    33554432 cpu:         1.4
 (Enter /mnt/storage/apps/eb/software/gaussian/09/l716.exe)
 Dipole        =-8.07264760D-01-1.26364004D-01 1.59886671D-01
 ***** Axes restored to original set *****
 -------------------------------------------------------------------
 Center     Atomic                   Forces (Hartrees/Bohr)
 Number     Number              X              Y              Z
 -------------------------------------------------------------------
      1        8          -0.001729193   -0.006536674    0.008829229
      2        6           0.006138851    0.003158370    0.001678379
      3        6           0.010425522    0.020774514    0.000771226
      4        8          -0.002441545   -0.014313373   -0.009688488
      5        6           0.001203542   -0.014426990    0.002046104
      6        8           0.008004264    0.009168152   -0.008041510
      7        1          -0.007019727    0.004469109   -0.007415161
      8        1          -0.006880661   -0.001789056   -0.000139220
      9        1           0.000426194   -0.000933669    0.000867280
     10        1          -0.005727539    0.000948756    0.000106262
     11        1          -0.000964536    0.003824434    0.007010489
     12        1           0.005268648    0.002820678   -0.003299637
     13        1          -0.000467447    0.001680513    0.002453037
     14        1          -0.006236372   -0.008844763    0.004822010
 -------------------------------------------------------------------
 Cartesian Forces:  Max     0.020774514 RMS     0.006756549
 Leave Link  716 at Wed Sep 20 14:35:46 2023, MaxMem=    33554432 cpu:         0.0
 (Enter /mnt/storage/apps/eb/software/gaussian/09/l103.exe)

 GradGradGradGradGradGradGradGradGradGradGradGradGradGradGradGradGradGrad
 Berny optimization.
 Using GEDIIS/GDIIS optimizer.
 FormGI is forming the generalized inverse of G from B-inverse, IUseBI=4.
 Internal  Forces:  Max     0.012267502 RMS     0.004125962
 Search for a local minimum.
 Step number   2 out of a maximum of  100
 All quantities printed in internal units (Hartrees-Bohrs-Radians)
 RMS Force = .41260D-02 SwitMx=.10000D-02 MixMth= 1
 Mixed Optimization -- RFO/linear search
 Update second derivatives using D2CorX and points    1    2
 DE= -1.98D-02 DEPred=-2.56D-02 R= 7.70D-01
 TightC=F SS=  1.41D+00  RLast= 3.79D-01 DXNew= 5.0454D-01 1.1358D+00
 Trust test= 7.70D-01 RLast= 3.79D-01 DXMaxT set to 5.05D-01
 ITU=  1  0
 Use linear search instead of GDIIS.
     Eigenvalues ---    0.00373   0.00563   0.01722   0.01795   0.02044
     Eigenvalues ---    0.04228   0.04954   0.05033   0.05158   0.05992
     Eigenvalues ---    0.06121   0.07536   0.11552   0.11882   0.13875
     Eigenvalues ---    0.13909   0.15964   0.16000   0.16029   0.17256
     Eigenvalues ---    0.20861   0.22111   0.25220   0.29637   0.30798
     Eigenvalues ---    0.32250   0.32751   0.33233   0.34244   0.35732
     Eigenvalues ---    0.43597   0.46889   0.47210   0.48236   0.49527
     Eigenvalues ---    0.51934
 RFO step:  Lambda=-5.39334996D-03 EMin= 3.72576754D-03
 Quartic linear search produced a step of  0.07055.
 Iteration  1 RMS(Cart)=  0.05401567 RMS(Int)=  0.00173126
 Iteration  2 RMS(Cart)=  0.00190203 RMS(Int)=  0.00020749
 Iteration  3 RMS(Cart)=  0.00000645 RMS(Int)=  0.00020744
 Iteration  4 RMS(Cart)=  0.00000000 RMS(Int)=  0.00020744
 ITry= 1 IFail=0 DXMaxC= 1.89D-01 DCOld= 1.00D+10 DXMaxT= 5.05D-01 DXLimC= 3.00D+00 Rises=F
 Variable       Old X    -DE/DX   Delta X   Delta X   Delta X     New X
                                 (Linear)    (Quad)   (Total)
    R1        2.67701  -0.00740   0.00252  -0.01599  -0.01348   2.66353
    R2        1.80893  -0.01110  -0.00598  -0.02699  -0.03297   1.77595
    R3        2.91079  -0.00873   0.00332  -0.02844  -0.02511   2.88567
    R4        2.05653  -0.00157  -0.00086  -0.00514  -0.00600   2.05053
    R5        2.04951  -0.00116  -0.00278  -0.00469  -0.00748   2.04203
    R6        2.61675   0.01019   0.00164   0.02190   0.02354   2.64029
    R7        2.91867  -0.01227   0.00196  -0.04288  -0.04091   2.87776
    R8        2.06395  -0.00335  -0.00228  -0.01159  -0.01387   2.05008
    R9        1.80115  -0.00615  -0.00469  -0.01481  -0.01950   1.78165
   R10        2.65716   0.00152   0.00183   0.00411   0.00594   2.66310
   R11        2.06155  -0.00619  -0.00390  -0.02197  -0.02587   2.03567
   R12        2.04350   0.00139  -0.00276   0.00335   0.00059   2.04408
   R13        1.80788  -0.01174  -0.00623  -0.02864  -0.03487   1.77301
    A1        1.89701   0.00184   0.00407   0.01317   0.01723   1.91424
    A2        1.96830  -0.00536   0.00822  -0.01829  -0.01012   1.95818
    A3        1.89189   0.00734   0.00211   0.06936   0.07159   1.96348
    A4        1.85267   0.00092  -0.00167  -0.00388  -0.00566   1.84701
    A5        1.92989  -0.00301  -0.00338  -0.02312  -0.02706   1.90283
    A6        1.92336   0.00125  -0.00249  -0.00860  -0.01155   1.91181
    A7        1.89483  -0.00077  -0.00249  -0.01369  -0.01706   1.87776
    A8        1.95582  -0.00354  -0.00124  -0.02842  -0.02952   1.92630
    A9        1.96621  -0.00292   0.00812  -0.01285  -0.00483   1.96137
   A10        1.85762   0.00415  -0.00066   0.04003   0.03930   1.89692
   A11        1.91577   0.00501  -0.00281   0.01885   0.01579   1.93157
   A12        1.87044  -0.00147  -0.00249  -0.01365  -0.01593   1.85451
   A13        1.89359  -0.00121  -0.00100  -0.00300  -0.00427   1.88932
   A14        1.92441  -0.00154  -0.00446  -0.01134  -0.01580   1.90861
   A15        1.94058  -0.00482   0.00516  -0.01825  -0.01318   1.92740
   A16        1.87132   0.00223   0.00189   0.01904   0.02093   1.89225
   A17        1.91959   0.00211   0.00208   0.00770   0.00972   1.92932
   A18        1.86590   0.00227  -0.00269   0.02143   0.01861   1.88451
   A19        1.94200   0.00074  -0.00267  -0.00551  -0.00832   1.93368
   A20        1.92245  -0.00252  -0.00336  -0.02365  -0.02711   1.89534
   A21        1.90134   0.00234   0.00339   0.01615   0.01955   1.92089
    D1        1.28579  -0.00048   0.00068   0.00636   0.00730   1.29309
    D2       -0.85701   0.00169  -0.00138  -0.00152  -0.00312  -0.86013
    D3       -2.88970  -0.00148   0.00131  -0.01754  -0.01626  -2.90595
    D4       -3.12761  -0.00076   0.00099  -0.03099  -0.02968   3.12589
    D5        0.98489  -0.00241  -0.00049  -0.02389  -0.02427   0.96062
    D6       -1.08827  -0.00193  -0.00319  -0.03850  -0.04177  -1.13004
    D7       -1.00620   0.00278   0.00693   0.02898   0.03580  -0.97041
    D8        3.10630   0.00114   0.00545   0.03609   0.04121  -3.13568
    D9        1.03314   0.00162   0.00275   0.02147   0.02370   1.05685
   D10        1.08875   0.00069  -0.00059  -0.00848  -0.00865   1.08010
   D11       -1.08193  -0.00095  -0.00207  -0.00137  -0.00324  -1.08517
   D12        3.12809  -0.00047  -0.00477  -0.01599  -0.02074   3.10735
   D13       -0.74820  -0.00128  -0.00608  -0.10170  -0.10752  -0.85572
   D14        1.45026  -0.00389   0.00152  -0.12512  -0.12364   1.32662
   D15       -2.77982  -0.00347  -0.00293  -0.12632  -0.12946  -2.90928
   D16        1.10287  -0.00298  -0.00077  -0.07717  -0.07796   1.02491
   D17        3.13672  -0.00155  -0.00033  -0.05010  -0.05043   3.08629
   D18       -1.05619  -0.00207  -0.00210  -0.06289  -0.06503  -1.12123
   D19       -1.08966  -0.00004  -0.00299  -0.04486  -0.04777  -1.13743
   D20        0.94419   0.00140  -0.00256  -0.01779  -0.02024   0.92395
   D21        3.03446   0.00088  -0.00433  -0.03058  -0.03484   2.99962
   D22       -3.12828  -0.00036   0.00239  -0.03725  -0.03492   3.11998
   D23       -1.09443   0.00107   0.00283  -0.01019  -0.00739  -1.10182
   D24        0.99584   0.00055   0.00106  -0.02297  -0.02199   0.97384
   D25       -1.77000   0.00107  -0.00104   0.03527   0.03419  -1.73582
   D26        2.47602  -0.00035  -0.00453   0.00965   0.00524   2.48125
   D27        0.37624   0.00087   0.00341   0.02821   0.03153   0.40777
         Item               Value     Threshold  Converged?
 Maximum Force            0.012268     0.000015     NO 
 RMS     Force            0.004126     0.000010     NO 
 Maximum Displacement     0.189055     0.000060     NO 
 RMS     Displacement     0.054048     0.000040     NO 
 Predicted change in Energy=-2.902918D-03
 Lowest energy point so far.  Saving SCF results.
 GradGradGradGradGradGradGradGradGradGradGradGradGradGradGradGradGradGrad

 Leave Link  103 at Wed Sep 20 14:35:46 2023, MaxMem=    33554432 cpu:         0.0
 (Enter /mnt/storage/apps/eb/software/gaussian/09/l202.exe)
                          Input orientation:                          
 ---------------------------------------------------------------------
 Center     Atomic      Atomic             Coordinates (Angstroms)
 Number     Number       Type             X           Y           Z
 ---------------------------------------------------------------------
      1          8           0        1.813570    0.557610   -0.586252
      2          6           0        0.866544   -0.476384   -0.729887
      3          6           0       -0.068065   -0.573931    0.473782
      4          8           0       -1.002033   -1.595367    0.282755
      5          6           0       -0.767722    0.745168    0.772960
      6          8           0       -1.518358    1.167927   -0.342305
      7          1           0        2.469802    0.301536    0.035840
      8          1           0        1.329647   -1.443288   -0.897390
      9          1           0        0.294107   -0.231136   -1.612982
     10          1           0        0.514898   -0.854453    1.344630
     11          1           0       -1.393989   -1.504926   -0.569934
     12          1           0       -1.448979    0.590748    1.593003
     13          1           0       -0.048034    1.499992    1.059886
     14          1           0       -1.041385    1.816504   -0.824106
 ---------------------------------------------------------------------
                    Distance matrix (angstroms):
                    1          2          3          4          5
     1  O    0.000000
     2  C    1.409479   0.000000
     3  C    2.438156   1.527033   0.000000
     4  O    3.649397   2.401905   1.397182   0.000000
     5  C    2.923304   2.534081   1.522844   2.402771   0.000000
     6  O    3.396136   2.922625   2.409029   2.879771   1.409254
     7  H    0.939795   1.939571   2.720111   3.963943   3.349884
     8  H    2.081966   1.085092   2.142310   2.617747   3.460978
     9  H    1.996262   1.080597   2.145522   2.671128   2.788077
    10  H    2.721906   2.137805   1.084856   1.994395   2.128546
    11  H    3.813497   2.488674   1.927219   0.942808   2.694161
    12  H    3.923580   3.449093   2.125102   2.587588   1.077231
    13  H    2.657710   2.818830   2.155244   3.330960   1.081683
    14  H    3.129242   2.984361   2.888953   3.587137   1.942492
                    6          7          8          9         10
     6  O    0.000000
     7  H    4.098664   0.000000
     8  H    3.903549   2.283700   0.000000
     9  H    2.618592   2.781368   1.747492   0.000000
    10  H    3.327146   2.621239   2.457071   3.030634   0.000000
    11  H    2.685410   4.308034   2.743943   2.357999   2.780741
    12  H    2.020734   4.226730   4.249721   3.740613   2.450940
    13  H    2.058704   2.970600   3.793657   3.202825   2.437495
    14  H    0.938236   3.919576   4.031552   2.568792   3.776168
                   11         12         13         14
    11  H    0.000000
    12  H    3.012171   0.000000
    13  H    3.673887   1.753165   0.000000
    14  H    3.349751   2.740625   2.153219   0.000000
 Stoichiometry    C3H8O3
 Framework group  C1[X(C3H8O3)]
 Deg. of freedom    36
 Full point group                 C1      NOp   1
 RotChk:  IX=0 Diff= 7.96D-02
 Largest Abelian subgroup         C1      NOp   1
 Largest concise Abelian subgroup C1      NOp   1
                         Standard orientation:                         
 ---------------------------------------------------------------------
 Center     Atomic      Atomic             Coordinates (Angstroms)
 Number     Number       Type             X           Y           Z
 ---------------------------------------------------------------------
      1          8           0       -1.974436   -0.607657    0.054053
      2          6           0       -1.123560    0.399476   -0.444268
      3          6           0        0.101552    0.610530    0.442515
      4          8           0        0.927205    1.600501   -0.096347
      5          6           0        0.882836   -0.677033    0.667967
      6          8           0        1.309490   -1.215461   -0.562503
      7          1           0       -2.441320   -0.285375    0.803298
      8          1           0       -1.634272    1.348098   -0.573555
      9          1           0       -0.808637    0.062348   -1.421436
     10          1           0       -0.227548    0.981599    1.407354
     11          1           0        1.073669    1.421810   -1.010407
     12          1           0        1.758532   -0.446068    1.251267
     13          1           0        0.284040   -1.393725    1.213710
     14          1           0        0.732501   -1.905588   -0.829139
 ---------------------------------------------------------------------
 Rotational constants (GHZ):      4.2792665      3.0139509      2.1446737
 Leave Link  202 at Wed Sep 20 14:35:46 2023, MaxMem=    33554432 cpu:         0.0
 (Enter /mnt/storage/apps/eb/software/gaussian/09/l301.exe)
 Standard basis: 6-31G(d) (6D, 7F)
 Ernie: Thresh=  0.10000D-02 Tol=  0.10000D-05 Strict=F.
 There are   106 symmetry adapted cartesian basis functions of A   symmetry.
 There are   106 symmetry adapted basis functions of A   symmetry.
   106 basis functions,   200 primitive gaussians,   106 cartesian basis functions
    25 alpha electrons       25 beta electrons
       nuclear repulsion energy       267.3135389795 Hartrees.
 IExCor=    0 DFT=F Ex=HF Corr=None ExCW=0 ScaHFX=  1.000000
 ScaDFX=  1.000000  1.000000  1.000000  1.000000 ScalE2=  1.000000  1.000000
 IRadAn=      0 IRanWt=     -1 IRanGd=            0 ICorTp=0 IEmpDi=  4
 NAtoms=   14 NActive=   14 NUniq=   14 SFac= 1.00D+00 NAtFMM=   60 NAOKFM=F Big=F
 Integral buffers will be    131072 words long.
 Raffenetti 1 integral format.
 Two-electron integral symmetry is turned on.
 Leave Link  301 at Wed Sep 20 14:35:46 2023, MaxMem=    33554432 cpu:         0.0
 (Enter /mnt/storage/apps/eb/software/gaussian/09/l302.exe)
 NPDir=0 NMtPBC=     1 NCelOv=     1 NCel=       1 NClECP=     1 NCelD=      1
         NCelK=      1 NCelE2=     1 NClLst=     1 CellRange=     0.0.
 One-electron integrals computed using PRISM.
 NBasis=   106 RedAO= T EigKep=  3.39D-03  NBF=   106
 NBsUse=   106 1.00D-06 EigRej= -1.00D+00 NBFU=   106
 Leave Link  302 at Wed Sep 20 14:35:46 2023, MaxMem=    33554432 cpu:         0.1
 (Enter /mnt/storage/apps/eb/software/gaussian/09/l303.exe)
 DipDrv:  MaxL=1.
 Leave Link  303 at Wed Sep 20 14:35:46 2023, MaxMem=    33554432 cpu:         0.0
 (Enter /mnt/storage/apps/eb/software/gaussian/09/l401.exe)
 Initial guess from the checkpoint file:  "/scratch/nca121/18446470/Gau-12822.chk"
 B after Tr=     0.000000    0.000000    0.000000
         Rot=    0.999667    0.002991   -0.005087    0.025119 Ang=   2.96 deg.
 Guess basis will be translated and rotated to current coordinates.
 JPrj=2 DoOrth=T DoCkMO=T.
 Generating alternative initial guess.
 ExpMin= 1.61D-01 ExpMax= 5.48D+03 ExpMxC= 8.25D+02 IAcc=1 IRadAn=         1 AccDes= 0.00D+00
 Harris functional with IExCor=  205 and IRadAn=       1 diagonalized for initial guess.
 HarFok:  IExCor=  205 AccDes= 0.00D+00 IRadAn=         1 IDoV= 1 UseB2=F ITyADJ=14
 ICtDFT=  3500011 ScaDFX=  1.000000  1.000000  1.000000  1.000000
 FoFCou: FMM=F IPFlag=           0 FMFlag=      100000 FMFlg1=           0
         NFxFlg=           0 DoJE=T BraDBF=F KetDBF=T FulRan=T
         wScrn=  0.000000 ICntrl=     500 IOpCl=  0 I1Cent=   200000004 NGrid=           0
         NMat0=    1 NMatS0=      1 NMatT0=    0 NMatD0=    1 NMtDS0=    0 NMtDT0=    0
 Petite list used in FoFCou.
 Harris En= -343.199098416263    
 Leave Link  401 at Wed Sep 20 14:35:47 2023, MaxMem=    33554432 cpu:         0.3
 (Enter /mnt/storage/apps/eb/software/gaussian/09/l508.exe)
 Direct SCF.
 Tight linear equation convergence will be used.
 RHF wavefunction.
 Quadratic Convergence SCF Method.
 Line search only if initial step raises energy.
 Integral symmetry usage will be decided dynamically.
 ReadGW:  IGet=1 IStart=         402 Next=         402 LGW=           0.
 Keep R1 ints in memory in canonical form, NReq=17057397.
 FoFCou: FMM=F IPFlag=           0 FMFlag=           0 FMFlg1=           0
         NFxFlg=           0 DoJE=F BraDBF=F KetDBF=F FulRan=T
         wScrn=  0.000000 ICntrl=     600 IOpCl=  0 I1Cent=           0 NGrid=           0
         NMat0=    1 NMatS0=   5671 NMatT0=    0 NMatD0=    1 NMtDS0=    0 NMtDT0=    0
 Symmetry not used in FoFCou.
 Iteration   1 EE= -342.804232214230                                    Grad=8.154D-02 Max rot=    0.4342 deg.
 Gradient too large for Newton-Raphson -- use scaled steepest descent instead.
 Alpha Gap=     1.816 HL deriv= 1.13D-03
     ILin= 1 X=0.000D+00 Y=-3.428042322142D+02 DE= 0.00D+00 F= -5.54D-03
     ILin= 2 X=3.000D-01 Y=-3.428057056293D+02 DE=-1.47D-03 F= -4.29D-03
     ILin= 3 X=6.000D-01 Y=-3.428068033067D+02 DE=-2.57D-03 F= -3.03D-03
     ILin= 4 X=1.200D+00 Y=-3.428078711087D+02 DE=-3.64D-03 F= -5.27D-04
     Reject lnstep minimum 1.413D+00 FVal=-3.428079948021D+02 Lims=  6.00D-01  1.20D+00
     ILin= 5 X=2.400D+00 Y=-3.428054946094D+02 DE=-1.26D-03 F=  4.49D-03
     An  expanding polynomial of degree  5 produced  1.3260
     Minimum is close to point  4 DX=  1.26D-01 DF= -3.32D-05 DXR=  9.51D-02 DFR=  9.12D-03 which will be used.
 Iteration   2 EE= -342.807871108710     Delta-E=       -0.003638894479 Grad=3.952D-02 Max rot=    0.1777 deg.
 Gradient too large for Newton-Raphson -- use scaled steepest descent instead.
 Alpha Gap=     1.817 HL deriv= 7.67D-04
     ILin= 1 X=0.000D+00 Y=-3.428078711087D+02 DE= 0.00D+00 F= -1.31D-03
     ILin= 2 X=6.000D-01 Y=-3.428084425929D+02 DE=-5.71D-04 F= -5.99D-04
     ILin= 3 X=1.300D+00 Y=-3.428085736382D+02 DE=-7.03D-04 F=  2.25D-04
     Accept linear search using points  2 and  3.
     An  expanding polynomial of degree  3 produced  1.0438
 Iteration   3 EE= -342.808592612253     Delta-E=       -0.000721503543 Grad=2.499D-02 Max rot=    0.1478 deg.
 Gradient too large for Newton-Raphson -- use scaled steepest descent instead.
 Alpha Gap=     1.817 HL deriv= 6.81D-04
     ILin= 1 X=0.000D+00 Y=-3.428085926123D+02 DE= 0.00D+00 F= -5.46D-04
     ILin= 2 X=1.200D+00 Y=-3.428088311550D+02 DE=-2.39D-04 F=  1.49D-04
     Accept linear search using points  1 and  2.
     An  expanding polynomial of degree  2 produced  1.0020
 Iteration   4 EE= -342.808849266925     Delta-E=       -0.000256654672 Grad=1.959D-02 Max rot=    0.0842 deg.
 Gradient too large for Newton-Raphson -- use scaled steepest descent instead.
 Alpha Gap=     1.817 HL deriv= 3.25D-04
[...]
 Optimization completed.
    -- Stationary point found.
                           ----------------------------
                           !   Optimized Parameters   !
                           ! (Angstroms and Degrees)  !
 --------------------------                            --------------------------
 ! Name  Definition              Value          Derivative Info.                !
 --------------------------------------------------------------------------------
 ! R1    R(1,2)                  1.4051         -DE/DX =    0.0                 !
 ! R2    R(1,7)                  0.947          -DE/DX =    0.0                 !
 ! R3    R(2,3)                  1.5274         -DE/DX =    0.0                 !
 ! R4    R(2,8)                  1.0855         -DE/DX =    0.0                 !
 ! R5    R(2,9)                  1.0827         -DE/DX =    0.0                 !
 ! R6    R(3,4)                  1.4014         -DE/DX =    0.0                 !
 ! R7    R(3,5)                  1.5222         -DE/DX =    0.0                 !
 ! R8    R(3,10)                 1.0866         -DE/DX =    0.0                 !
 ! R9    R(4,11)                 0.9501         -DE/DX =    0.0                 !
 ! R10   R(5,6)                  1.409          -DE/DX =    0.0                 !
 ! R11   R(5,12)                 1.0821         -DE/DX =    0.0                 !
 ! R12   R(5,13)                 1.0832         -DE/DX =    0.0                 !
 ! R13   R(6,14)                 0.9471         -DE/DX =    0.0                 !
 ! A1    A(2,1,7)              109.8204         -DE/DX =    0.0                 !
 ! A2    A(1,2,3)              112.7275         -DE/DX =    0.0                 !
 ! A3    A(1,2,8)              111.6291         -DE/DX =    0.0                 !
 ! A4    A(1,2,9)              106.5266         -DE/DX =    0.0                 !
 ! A5    A(3,2,8)              109.153          -DE/DX =    0.0                 !
 ! A6    A(3,2,9)              109.457          -DE/DX =    0.0                 !
 ! A7    A(8,2,9)              107.1533         -DE/DX =    0.0                 !
 ! A8    A(2,3,4)              108.9899         -DE/DX =    0.0                 !
 ! A9    A(2,3,5)              112.9996         -DE/DX =    0.0                 !
 ! A10   A(2,3,10)             109.174          -DE/DX =    0.0                 !
 ! A11   A(4,3,5)              110.5026         -DE/DX =    0.0                 !
 ! A12   A(4,3,10)             106.6358         -DE/DX =    0.0                 !
 ! A13   A(5,3,10)             108.3321         -DE/DX =    0.0                 !
 ! A14   A(3,4,11)             107.8387         -DE/DX =    0.0                 !
 ! A15   A(3,5,6)              110.7115         -DE/DX =    0.0                 !
 ! A16   A(3,5,12)             108.8554         -DE/DX =    0.0                 !
 ! A17   A(3,5,13)             110.856          -DE/DX =    0.0                 !
 ! A18   A(6,5,12)             106.4921         -DE/DX =    0.0                 !
 ! A19   A(6,5,13)             111.2063         -DE/DX =    0.0                 !
 ! A20   A(12,5,13)            108.5718         -DE/DX =    0.0                 !
 ! A21   A(5,6,14)             109.5164         -DE/DX =    0.0                 !
 ! D1    D(7,1,2,3)             75.6784         -DE/DX =    0.0                 !
 ! D2    D(7,1,2,8)            -47.6025         -DE/DX =    0.0                 !
 ! D3    D(7,1,2,9)           -164.2561         -DE/DX =    0.0                 !
 ! D4    D(1,2,3,4)            177.4112         -DE/DX =    0.0                 !
 ! D5    D(1,2,3,5)             54.1493         -DE/DX =    0.0                 !
 ! D6    D(1,2,3,10)           -66.4715         -DE/DX =    0.0                 !
 ! D7    D(8,2,3,4)            -57.9413         -DE/DX =    0.0                 !
 ! D8    D(8,2,3,5)            178.7968         -DE/DX =    0.0                 !
 ! D9    D(8,2,3,10)            58.176          -DE/DX =    0.0                 !
 ! D10   D(9,2,3,4)             59.0477         -DE/DX =    0.0                 !
 ! D11   D(9,2,3,5)            -64.2142         -DE/DX =    0.0                 !
 ! D12   D(9,2,3,10)           175.165          -DE/DX =    0.0                 !
 ! D13   D(2,3,4,11)           -82.4145         -DE/DX =    0.0                 !
 ! D14   D(5,3,4,11)            42.3246         -DE/DX =    0.0                 !
 ! D15   D(10,3,4,11)          159.8534         -DE/DX =    0.0                 !
 ! D16   D(2,3,5,6)             63.6495         -DE/DX =    0.0                 !
 ! D17   D(2,3,5,12)          -179.6177         -DE/DX =    0.0                 !
 ! D18   D(2,3,5,13)           -60.2601         -DE/DX =    0.0                 !
 ! D19   D(4,3,5,6)            -58.7712         -DE/DX =    0.0                 !
 ! D20   D(4,3,5,12)            57.9616         -DE/DX =    0.0                 !
 ! D21   D(4,3,5,13)           177.3192         -DE/DX =    0.0                 !
 ! D22   D(10,3,5,6)          -175.2514         -DE/DX =    0.0                 !
 ! D23   D(10,3,5,12)          -58.5186         -DE/DX =    0.0                 !
 ! D24   D(10,3,5,13)           60.839          -DE/DX =    0.0                 !
 ! D25   D(3,5,6,14)           -86.5425         -DE/DX =    0.0                 !
 ! D26   D(12,5,6,14)          155.2754         -DE/DX =    0.0                 !
 ! D27   D(13,5,6,14)           37.166          -DE/DX =    0.0                 !
 --------------------------------------------------------------------------------
 Lowest energy point so far.  Saving SCF results.
 GradGradGradGradGradGradGradGradGradGradGradGradGradGradGradGradGradGrad

 Largest change from initial coordinates is atom    7       0.340 Angstoms.
 Leave Link  103 at Wed Sep 20 14:36:37 2023, MaxMem=    33554432 cpu:         0.0
 (Enter /mnt/storage/apps/eb/software/gaussian/09/l202.exe)
                          Input orientation:                          
 ---------------------------------------------------------------------
 Center     Atomic      Atomic             Coordinates (Angstroms)
 Number     Number       Type             X           Y           Z
 ---------------------------------------------------------------------
      1          8           0        1.851205    0.582033   -0.556371
      2          6           0        0.921043   -0.456717   -0.729559
      3          6           0       -0.046251   -0.584682    0.445576
      4          8           0       -0.971605   -1.599375    0.166119
      5          6           0       -0.764700    0.717778    0.769106
      6          8           0       -1.582037    1.116652   -0.307075
      7          1           0        2.515590    0.317910    0.064705
      8          1           0        1.412466   -1.410926   -0.891875
      9          1           0        0.365979   -0.226128   -1.630099
     10          1           0        0.503948   -0.899825    1.328019
     11          1           0       -1.654907   -1.227921   -0.379513
     12          1           0       -1.424076    0.553597    1.611224
     13          1           0       -0.056305    1.494008    1.031806
     14          1           0       -1.070349    1.623597   -0.922064
 ---------------------------------------------------------------------
                    Distance matrix (angstroms):
                    1          2          3          4          5
     1  O    0.000000
     2  C    1.405061   0.000000
     3  C    2.442429   1.527409   0.000000
     4  O    3.639888   2.385377   1.401420   0.000000
     5  C    2.935689   2.543062   1.522248   2.403248   0.000000
     6  O    3.483549   2.986535   2.412397   2.823711   1.409009
     7  H    0.947050   1.942545   2.742766   3.980803   3.378813
     8  H    2.068076   1.085522   2.144600   2.615083   3.468470
     9  H    2.002976   1.082700   2.146374   2.627040   2.815240
    10  H    2.749896   2.145679   1.086618   2.004155   2.130373
    11  H    3.949688   2.711606   1.918933   0.950050   2.428485
    12  H    3.927689   3.464042   2.133733   2.632176   1.082079
    13  H    2.644352   2.804094   2.159796   3.340091   1.083222
    14  H    3.123149   2.886244   2.792080   3.403152   1.942674
                    6          7          8          9         10
     6  O    0.000000
     7  H    4.191271   0.000000
     8  H    3.962031   2.262918   0.000000
     9  H    2.710759   2.790908   1.744665   0.000000
    10  H    3.330322   2.669371   2.452459   3.036999   0.000000
    11  H    2.346823   4.469896   3.115251   2.579057   2.771997
    12  H    2.005456   4.238896   4.262725   3.783972   2.431033
    13  H    2.064669   2.988835   3.781068   3.197332   2.476300
    14  H    0.947116   3.941762   3.920919   2.446596   3.729469
                   11         12         13         14
    11  H    0.000000
    12  H    2.681441   0.000000
    13  H    3.457781   1.758094   0.000000
    14  H    2.960950   2.772646   2.205150   0.000000
 Stoichiometry    C3H8O3
 Framework group  C1[X(C3H8O3)]
 Deg. of freedom    36
 Full point group                 C1      NOp   1
 RotChk:  IX=0 Diff= 5.06D-16
 Largest Abelian subgroup         C1      NOp   1
 Largest concise Abelian subgroup C1      NOp   1
                         Standard orientation:                         
 ---------------------------------------------------------------------
 Center     Atomic      Atomic             Coordinates (Angstroms)
 Number     Number       Type             X           Y           Z
 ---------------------------------------------------------------------
      1          8           0       -1.991815   -0.638686    0.024038
      2          6           0       -1.152287    0.387988   -0.439998
      3          6           0        0.070150    0.598775    0.451178
      4          8           0        0.879517    1.594136   -0.112880
      5          6           0        0.870757   -0.676606    0.674047
      6          8           0        1.407914   -1.146481   -0.540856
      7          1           0       -2.489281   -0.334141    0.770150
      8          1           0       -1.686714    1.327579   -0.539572
      9          1           0       -0.829728    0.097427   -1.431849
     10          1           0       -0.253737    0.972459    1.418750
     11          1           0        1.415817    1.187744   -0.783569
     12          1           0        1.712611   -0.453329    1.316173
     13          1           0        0.263058   -1.434687    1.152987
     14          1           0        0.771321   -1.695741   -0.976850
 ---------------------------------------------------------------------
 Rotational constants (GHZ):      4.4371749      2.9218960      2.1287495
 Leave Link  202 at Wed Sep 20 14:36:37 2023, MaxMem=    33554432 cpu:         0.0
 (Enter /mnt/storage/apps/eb/software/gaussian/09/l601.exe)
 Copying SCF densities to generalized density rwf, IOpCl= 0 IROHF=0.

 **********************************************************************

            Population analysis using the SCF density.

 **********************************************************************

 Orbital symmetries:
       Occupied  (A) (A) (A) (A) (A) (A) (A) (A) (A) (A) (A) (A)
                 (A) (A) (A) (A) (A) (A) (A) (A) (A) (A) (A) (A)
                 (A)
       Virtual   (A) (A) (A) (A) (A) (A) (A) (A) (A) (A) (A) (A)
                 (A) (A) (A) (A) (A) (A) (A) (A) (A) (A) (A) (A)
                 (A) (A) (A) (A) (A) (A) (A) (A) (A) (A) (A) (A)
                 (A) (A) (A) (A) (A) (A) (A) (A) (A) (A) (A) (A)
                 (A) (A) (A) (A) (A) (A) (A) (A) (A) (A) (A) (A)
                 (A) (A) (A) (A) (A) (A) (A) (A) (A) (A) (A) (A)
                 (A) (A) (A) (A) (A) (A) (A) (A) (A)
 The electronic state is 1-A.
 Alpha  occ. eigenvalues --  -20.57127 -20.57062 -20.55688 -11.27670 -11.27524
 Alpha  occ. eigenvalues --  -11.27414  -1.38970  -1.37365  -1.35725  -1.02553
 Alpha  occ. eigenvalues --   -0.93453  -0.82699  -0.72038  -0.69899  -0.69429
 Alpha  occ. eigenvalues --   -0.65062  -0.63613  -0.59293  -0.56521  -0.54014
 Alpha  occ. eigenvalues --   -0.51221  -0.50109  -0.48769  -0.45106  -0.41255
 Alpha virt. eigenvalues --    0.20130   0.22506   0.26998   0.28526   0.29692
 Alpha virt. eigenvalues --    0.31019   0.32773   0.34303   0.38701   0.40814
 Alpha virt. eigenvalues --    0.43266   0.45527   0.49941   0.74687   0.76789
 Alpha virt. eigenvalues --    0.80596   0.81891   0.82907   0.86826   0.90682
 Alpha virt. eigenvalues --    0.95879   1.01985   1.06897   1.07908   1.09346
 Alpha virt. eigenvalues --    1.10691   1.13868   1.16069   1.16876   1.18622
 Alpha virt. eigenvalues --    1.21252   1.21553   1.25686   1.28002   1.30822
 Alpha virt. eigenvalues --    1.35290   1.35462   1.41194   1.45988   1.47772
 Alpha virt. eigenvalues --    1.54987   1.63789   1.70980   1.74272   1.77817
 Alpha virt. eigenvalues --    1.84434   1.89579   1.92449   1.94822   1.98857
 Alpha virt. eigenvalues --    2.04894   2.07993   2.11713   2.20369   2.23168
 Alpha virt. eigenvalues --    2.32782   2.39592   2.41939   2.46325   2.48179
 Alpha virt. eigenvalues --    2.51940   2.56781   2.62582   2.68780   2.70924
 Alpha virt. eigenvalues --    2.77166   2.85876   2.87295   2.89632   2.90974
 Alpha virt. eigenvalues --    3.04421   3.10116   3.18840   3.26329   3.29068
 Alpha virt. eigenvalues --    4.10349   4.21960   4.31130   4.66671   4.78996
 Alpha virt. eigenvalues --    4.97240
          Condensed to atoms (all electrons):
               1          2          3          4          5          6
     1  O    8.406546   0.181320  -0.047336   0.001820   0.002574  -0.000357
     2  C    0.181320   4.889659   0.341351  -0.051669  -0.058302   0.001489
     3  C   -0.047336   0.341351   4.916652   0.199730   0.345751  -0.061006
     4  O    0.001820  -0.051669   0.199730   8.416404  -0.040084  -0.003106
     5  C    0.002574  -0.058302   0.345751  -0.040084   4.868362   0.200242
     6  O   -0.000357   0.001489  -0.061006  -0.003106   0.200242   8.403847
     7  H    0.261875  -0.025113  -0.001757  -0.000014  -0.000499   0.000004
     8  H   -0.030743   0.404879  -0.050616   0.004661   0.005624   0.000037
     9  H   -0.036786   0.395205  -0.046870   0.004008  -0.009001   0.006237
    10  H    0.002645  -0.049065   0.395746  -0.034910  -0.048600   0.003288
    11  H   -0.000051  -0.002506  -0.027737   0.261014  -0.013950   0.015438
    12  H    0.000009   0.005096  -0.050628  -0.000342   0.410720  -0.037659
    13  H    0.005371  -0.003849  -0.043956   0.003184   0.388598  -0.029910
    14  H    0.000787   0.002326  -0.002829   0.000178  -0.021861   0.262183
               7          8          9         10         11         12
     1  O    0.261875  -0.030743  -0.036786   0.002645  -0.000051   0.000009
     2  C   -0.025113   0.404879   0.395205  -0.049065  -0.002506   0.005096
     3  C   -0.001757  -0.050616  -0.046870   0.395746  -0.027737  -0.050628
     4  O   -0.000014   0.004661   0.004008  -0.034910   0.261014  -0.000342
     5  C   -0.000499   0.005624  -0.009001  -0.048600  -0.013950   0.410720
     6  O    0.000004   0.000037   0.006237   0.003288   0.015438  -0.037659
     7  H    0.321302  -0.005418   0.005616   0.002343   0.000008  -0.000035
     8  H   -0.005418   0.538092  -0.031558  -0.004917  -0.000410  -0.000053
     9  H    0.005616  -0.031558   0.540414   0.005140   0.002740  -0.000103
    10  H    0.002343  -0.004917   0.005140   0.567186   0.005958  -0.002206
    11  H    0.000008  -0.000410   0.002740   0.005958   0.302161  -0.000215
    12  H   -0.000035  -0.000053  -0.000103  -0.002206  -0.000215   0.513982
    13  H    0.000083  -0.000003   0.000763   0.002517   0.000616  -0.028527
    14  H   -0.000037   0.000052  -0.000392  -0.000096  -0.000381   0.004820
              13         14
     1  O    0.005371   0.000787
     2  C   -0.003849   0.002326
     3  C   -0.043956  -0.002829
     4  O    0.003184   0.000178
     5  C    0.388598  -0.021861
     6  O   -0.029910   0.262183
     7  H    0.000083  -0.000037
     8  H   -0.000003   0.000052
     9  H    0.000763  -0.000392
    10  H    0.002517  -0.000096
    11  H    0.000616  -0.000381
    12  H   -0.028527   0.004820
    13  H    0.542994  -0.006485
    14  H   -0.006485   0.308198
 Mulliken charges:
               1
     1  O   -0.747674
     2  C   -0.030822
     3  C    0.133506
     4  O   -0.760875
     5  C   -0.029575
     6  O   -0.760726
     7  H    0.441643
     8  H    0.170373
     9  H    0.164586
    10  H    0.154969
    11  H    0.457315
    12  H    0.185140
    13  H    0.168603
    14  H    0.453536
 Sum of Mulliken charges =   0.00000
 Mulliken charges with hydrogens summed into heavy atoms:
               1
     1  O   -0.306031
     2  C    0.304137
     3  C    0.288475
     4  O   -0.303560
     5  C    0.324168
     6  O   -0.307190
 Electronic spatial extent (au):  <R**2>=            611.8208
 Charge=              0.0000 electrons
 Dipole moment (field-independent basis, Debye):
    X=             -1.5732    Y=             -0.6481    Z=              0.8633  Tot=              1.9079
 Quadrupole moment (field-independent basis, Debye-Ang):
   XX=            -38.2458   YY=            -40.7724   ZZ=            -32.3134
   XY=             -2.5003   XZ=             -2.9390   YZ=             -0.3179
 Traceless Quadrupole moment (field-independent basis, Debye-Ang):
   XX=             -1.1353   YY=             -3.6619   ZZ=              4.7972
   XY=             -2.5003   XZ=             -2.9390   YZ=             -0.3179
 Octapole moment (field-independent basis, Debye-Ang**2):
  XXX=             -9.0265  YYY=            -15.5805  ZZZ=             -3.1524  XYY=             -3.5391
  XXY=             11.1495  XXZ=              9.5730  XZZ=             -1.0263  YZZ=             -1.7432
  YYZ=             -4.1193  XYZ=             -1.9769
 Hexadecapole moment (field-independent basis, Debye-Ang**3):
 XXXX=           -355.2410 YYYY=           -248.7658 ZZZZ=           -100.1168 XXXY=              6.3104
 XXXZ=            -28.1328 YYYX=             -7.4059 YYYZ=              7.8754 ZZZX=            -10.0099
 ZZZY=              4.0301 XXYY=           -114.2179 XXZZ=            -69.4807 YYZZ=            -50.2848
 XXYZ=            -10.4463 YYXZ=             -6.0519 ZZXY=              3.3153
 N-N= 2.671885966715D+02 E-N=-1.342486668735D+03  KE= 3.422762556682D+02
 No NMR shielding tensors so no spin-rotation constants.
 Leave Link  601 at Wed Sep 20 14:36:37 2023, MaxMem=    33554432 cpu:         0.1
 (Enter /mnt/storage/apps/eb/software/gaussian/09/l9999.exe)
 1\1\GINC-SB084\FOpt\RHF\6-31G(d)\C3H8O3\NCA121\20-Sep-2023\0\\#P hf/6-
 31G* scf(qc) opt(tight,maxcycle=100)\\Gaussian input prepared by ASE\\
 0,1\O,1.8512047004,0.5820331766,-0.5563707821\C,0.9210429944,-0.456716
 7655,-0.7295593971\C,-0.0462509712,-0.584681726,0.4455764707\O,-0.9716
 047069,-1.5993753179,0.1661194651\C,-0.7646998283,0.7177775183,0.76910
 55885\O,-1.5820369787,1.1166518301,-0.307075082\H,2.515590046,0.317909
 8398,0.0647045498\H,1.4124663878,-1.4109257114,-0.8918747101\H,0.36597
 88666,-0.2261282724,-1.630099004\H,0.5039482609,-0.899824885,1.3280186
 291\H,-1.6549073071,-1.2279210013,-0.3795131428\H,-1.4240760199,0.5535
 974686,1.6112238065\H,-0.0563049242,1.4940080924,1.0318063505\H,-1.070
 3485199,1.6235967536,-0.922063742\\Version=ES64L-G09RevD.01\State=1-A\
 HF=-342.8123773\RMSD=0.000e+00\RMSF=4.661e-07\Dipole=0.6839245,0.26489
 42,0.1597885\Quadrupole=0.4504866,-2.5975706,2.147084,-1.5437604,3.085
 5838,1.0122014\PG=C01 [X(C3H8O3)]\\@


 THE POLHOLDE ROLLS WITHOUT SLIPPING ON THE HERPOLHOLDE LYING IN
 THE INVARIABLE PLANE.
 H.GOLDSTEIN, "CLASSICAL MECHANICS", PG 161
 Job cpu time:       0 days  0 hours  0 minutes 58.0 seconds.
 File lengths (MBytes):  RWF=      6 Int=      0 D2E=      0 Chk=      2 Scr=      1
 Normal termination of Gaussian 09 at Wed Sep 20 14:36:37 2023.
