 Entering Gaussian System, Link 0=g09
 Initial command:
 /mnt/storage/apps/eb/software/gaussian/09/l1.exe "/scratch/nca121/18446470/Gau-12877.inp" -scrdir="/scratch/nca121/18446470/"
 Entering Link 1 = /mnt/storage/apps/eb/software/gaussian/09/l1.exe PID=     12878.
  
 Copyright (c) 1988,1990,1992,1993,1995,1998,2003,2009,2013,
            Gaussian, Inc.  All Rights Reserved.
  
 This is part of the Gaussian(R) 09 program.  It is based on
 the Gaussian(R) 03 system (copyright 2003, Gaussian, Inc.),
 the Gaussian(R) 98 system (copyright 1998, Gaussian, Inc.),
 the Gaussian(R) 94 system (copyright 1995, Gaussian, Inc.),
 the Gaussian 92(TM) system (copyright 1992, Gaussian, Inc.),
 the Gaussian 90(TM) system (copyright 1990, Gaussian, Inc.),
 the Gaussian 88(TM) system (copyright 1988, Gaussian, Inc.),
 the Gaussian 86(TM) system (copyright 1986, Carnegie Mellon
 University), and the Gaussian 82(TM) system (copyright 1983,
 Carnegie Mellon University). Gaussian is a federally registered
 trademark of Gaussian, Inc.
  
 This software contains proprietary and confidential information,
 including trade secrets, belonging to Gaussian, Inc.
  
 This software is provided under written license and may be
 used, copied, transmitted, or stored only in accord with that
 written license.
  
 The following legend is applicable only to US Government
 contracts under FAR:
  
                    RESTRICTED RIGHTS LEGEND
  
 Use, reproduction and disclosure by the US Government is
 subject to restrictions as set forth in subparagraphs (a)
 and (c) of the Commercial Computer Software - Restricted
 Rights clause in FAR 52.227-19.
  
 Gaussian, Inc.
 340 Quinnipiac St., Bldg. 40, Wallingford CT 06492
  
  
 ---------------------------------------------------------------
 Warning -- This program may not be used in any manner that
 competes with the business of Gaussian, Inc. or will provide
 assistance to any competitor of Gaussian, Inc.  The licensee
 of this program is prohibited from giving any competitor of
 Gaussian, Inc. access to this program.  By using this program,
 the user acknowledges that Gaussian, Inc. is engaged in the
 business of creating and licensing software in the field of
 computational chemistry and represents and warrants to the
 licensee that it is not a competitor of Gaussian, Inc. and that
 it will not use this program in any manner prohibited above.
 ---------------------------------------------------------------
  

 Cite this work as:
 Gaussian 09, Revision D.01,
 M. J. Frisch, G. W. Trucks, H. B. Schlegel, G. E. Scuseria, 
 M. A. Robb, J. R. Cheeseman, G. Scalmani, V. Barone, B. Mennucci, 
 G. A. Petersson, H. Nakatsuji, M. Caricato, X. Li, H. P. Hratchian, 
 A. F. Izmaylov, J. Bloino, G. Zheng, J. L. Sonnenberg, M. Hada, 
 M. Ehara, K. Toyota, R. Fukuda, J. Hasegawa, M. Ishida, T. Nakajima, 
 Y. Honda, O. Kitao, H. Nakai, T. Vreven, J. A. Montgomery, Jr., 
 J. E. Peralta, F. Ogliaro, M. Bearpark, J. J. Heyd, E. Brothers, 
 K. N. Kudin, V. N. Staroverov, T. Keith, R. Kobayashi, J. Normand, 
 K. Raghavachari, A. Rendell, J. C. Burant, S. S. Iyengar, J. Tomasi, 
 M. Cossi, N. Rega, J. M. Millam, M. Klene, J. E. Knox, J. B. Cross, 
 V. Bakken, C. Adamo, J. Jaramillo, R. Gomperts, R. E. Stratmann, 
 O. Yazyev, A. J. Austin, R. Cammi, C. Pomelli, J. W. Ochterski, 
 R. L. Martin, K. Morokuma, V. G. Zakrzewski, G. A. Voth, 
 P. Salvador, J. J. Dannenberg, S. Dapprich, A. D. Daniels, 
 O. Farkas, J. B. Foresman, J. V. Ortiz, J. Cioslowski, 
 and D. J. Fox, Gaussian, Inc., Wallingford CT, 2013.
 
 ******************************************
 Gaussian 09:  ES64L-G09RevD.01 24-Apr-2013
                20-Sep-2023 
 ******************************************
 --------------------------------------------
 #P hf/6-31G* scf(qc) opt(tight,maxcycle=100)
 --------------------------------------------
 1/6=100,7=10,18=20,19=15,38=1/1,3;
 2/9=110,12=2,17=6,18=5,40=1/2;
 3/5=1,6=6,7=1,11=9,16=1,25=1,30=1,71=1/1,2,3;
 4//1;
 5/5=2,8=3,38=5/8;
 6/7=2,8=2,9=2,10=2,28=1/1;
 7//1,2,3,16;
 1/6=100,7=10,18=20,19=15/3(2);
 2/9=110/2;
 99//99;
 2/9=110/2;
 3/5=1,6=6,7=1,11=9,16=1,25=1,30=1,71=1/1,2,3;
 4/5=5,16=3,69=1/1;
 5/5=2,8=3,38=5/8;
 7//1,2,3,16;
 1/6=100,7=10,18=20,19=15/3(-5);
 2/9=110/2;
 6/7=2,8=2,9=2,10=2,19=2,28=1/1;
 99/9=1/99;
 Leave Link    1 at Wed Sep 20 14:36:37 2023, MaxMem=           0 cpu:         0.0
 (Enter /mnt/storage/apps/eb/software/gaussian/09/l101.exe)
 ------------------------------
 Gaussian input prepared by ASE
 ------------------------------
 Symbolic Z-matrix:
 Charge =  0 Multiplicity = 1
 O                     2.19844   0.04281  -0.46304 
 C                     0.96245  -0.56831  -0.38117 
 C                    -0.14822   0.49226  -0.32295 
 O                     0.03795   1.30366   0.80258 
 C                    -1.49724  -0.17618  -0.14837 
 O                    -1.53925  -0.94207   0.99921 
 H                     2.75041  -0.16537   0.31652 
 H                     0.88379  -1.13984   0.58405 
 H                     0.76964  -1.21202  -1.25924 
 H                    -0.13205   1.07362  -1.25008 
 H                     0.57527   2.07951   0.54854 
 H                    -1.77746  -0.74982  -1.06147 
 H                    -2.23429   0.6571   -0.03076 
 H                    -0.84946  -0.69534   1.6662 
 
 NAtoms=     14 NQM=       14 NQMF=       0 NMMI=      0 NMMIF=      0
                NMic=       0 NMicF=      0.
                    Isotopes and Nuclear Properties:
 (Nuclear quadrupole moments (NQMom) in fm**2, nuclear magnetic moments (NMagM)
  in nuclear magnetons)

  Atom         1           2           3           4           5           6           7           8           9          10
 IAtWgt=          16          12          12          16          12          16           1           1           1           1
 AtmWgt=  15.9949146  12.0000000  12.0000000  15.9949146  12.0000000  15.9949146   1.0078250   1.0078250   1.0078250   1.0078250
 NucSpn=           0           0           0           0           0           0           1           1           1           1
 AtZEff=   0.0000000   0.0000000   0.0000000   0.0000000   0.0000000   0.0000000   0.0000000   0.0000000   0.0000000   0.0000000
 NQMom=    0.0000000   0.0000000   0.0000000   0.0000000   0.0000000   0.0000000   0.0000000   0.0000000   0.0000000   0.0000000
 NMagM=    0.0000000   0.0000000   0.0000000   0.0000000   0.0000000   0.0000000   2.7928460   2.7928460   2.7928460   2.7928460
 AtZNuc=   8.0000000   6.0000000   6.0000000   8.0000000   6.0000000   8.0000000   1.0000000   1.0000000   1.0000000   1.0000000

  Atom        11          12          13          14
 IAtWgt=           1           1           1           1
 AtmWgt=   1.0078250   1.0078250   1.0078250   1.0078250
 NucSpn=           1           1           1           1
 AtZEff=   0.0000000   0.0000000   0.0000000   0.0000000
 NQMom=    0.0000000   0.0000000   0.0000000   0.0000000
 NMagM=    2.7928460   2.7928460   2.7928460   2.7928460
 AtZNuc=   1.0000000   1.0000000   1.0000000   1.0000000
 Leave Link  101 at Wed Sep 20 14:36:37 2023, MaxMem=    33554432 cpu:         0.1
 (Enter /mnt/storage/apps/eb/software/gaussian/09/l103.exe)

 GradGradGradGradGradGradGradGradGradGradGradGradGradGradGradGradGradGrad
 Berny optimization.
 Initialization pass.
                           ----------------------------
                           !    Initial Parameters    !
                           ! (Angstroms and Degrees)  !
 --------------------------                            --------------------------
 ! Name  Definition              Value          Derivative Info.                !
 --------------------------------------------------------------------------------
 ! R1    R(1,2)                  1.3812         estimate D2E/DX2                !
 ! R2    R(1,7)                  0.9776         estimate D2E/DX2                !
 ! R3    R(2,3)                  1.5368         estimate D2E/DX2                !
 ! R4    R(2,8)                  1.1245         estimate D2E/DX2                !
 ! R5    R(2,9)                  1.1057         estimate D2E/DX2                !
 ! R6    R(3,4)                  1.3999         estimate D2E/DX2                !
 ! R7    R(3,5)                  1.5156         estimate D2E/DX2                !
 ! R8    R(3,10)                 1.0944         estimate D2E/DX2                !
 ! R9    R(4,11)                 0.9773         estimate D2E/DX2                !
 ! R10   R(5,6)                  1.3803         estimate D2E/DX2                !
 ! R11   R(5,12)                 1.1142         estimate D2E/DX2                !
 ! R12   R(5,13)                 1.1187         estimate D2E/DX2                !
 ! R13   R(6,14)                 0.9907         estimate D2E/DX2                !
 ! A1    A(2,1,7)              111.3309         estimate D2E/DX2                !
 ! A2    A(1,2,3)              110.0979         estimate D2E/DX2                !
 ! A3    A(1,2,8)              109.7764         estimate D2E/DX2                !
 ! A4    A(1,2,9)              111.5024         estimate D2E/DX2                !
 ! A5    A(3,2,8)              105.5265         estimate D2E/DX2                !
 ! A6    A(3,2,9)              107.8081         estimate D2E/DX2                !
 ! A7    A(8,2,9)              111.9354         estimate D2E/DX2                !
 ! A8    A(2,3,4)              109.5317         estimate D2E/DX2                !
 ! A9    A(2,3,5)              110.0758         estimate D2E/DX2                !
 ! A10   A(2,3,10)             108.8933         estimate D2E/DX2                !
 ! A11   A(4,3,5)              106.3425         estimate D2E/DX2                !
 ! A12   A(4,3,10)             111.7916         estimate D2E/DX2                !
 ! A13   A(5,3,10)             110.1822         estimate D2E/DX2                !
 ! A14   A(3,4,11)             108.9193         estimate D2E/DX2                !
 ! A15   A(3,5,6)              111.5658         estimate D2E/DX2                !
 ! A16   A(3,5,12)             110.8874         estimate D2E/DX2                !
 ! A17   A(3,5,13)             105.6657         estimate D2E/DX2                !
 ! A18   A(6,5,12)             112.8317         estimate D2E/DX2                !
 ! A19   A(6,5,13)             107.8096         estimate D2E/DX2                !
 ! A20   A(12,5,13)            107.6952         estimate D2E/DX2                !
 ! A21   A(5,6,14)             113.5991         estimate D2E/DX2                !
 ! D1    D(7,1,2,3)            117.1958         estimate D2E/DX2                !
 ! D2    D(7,1,2,8)              1.4442         estimate D2E/DX2                !
 ! D3    D(7,1,2,9)           -123.189          estimate D2E/DX2                !
 ! D4    D(1,2,3,4)            -59.9906         estimate D2E/DX2                !
 ! D5    D(1,2,3,5)           -176.5753         estimate D2E/DX2                !
 ! D6    D(1,2,3,10)            62.5392         estimate D2E/DX2                !
 ! D7    D(8,2,3,4)             58.4074         estimate D2E/DX2                !
 ! D8    D(8,2,3,5)            -58.1774         estimate D2E/DX2                !
 ! D9    D(8,2,3,10)          -179.0629         estimate D2E/DX2                !
 ! D10   D(9,2,3,4)            178.1737         estimate D2E/DX2                !
 ! D11   D(9,2,3,5)             61.589          estimate D2E/DX2                !
 ! D12   D(9,2,3,10)           -59.2965         estimate D2E/DX2                !
 ! D13   D(2,3,4,11)            92.0736         estimate D2E/DX2                !
 ! D14   D(5,3,4,11)          -149.0072         estimate D2E/DX2                !
 ! D15   D(10,3,4,11)          -28.7133         estimate D2E/DX2                !
 ! D16   D(2,3,5,6)             58.5611         estimate D2E/DX2                !
 ! D17   D(2,3,5,12)           -68.1234         estimate D2E/DX2                !
 ! D18   D(2,3,5,13)           175.4593         estimate D2E/DX2                !
 ! D19   D(4,3,5,6)            -60.0008         estimate D2E/DX2                !
 ! D20   D(4,3,5,12)           173.3146         estimate D2E/DX2                !
 ! D21   D(4,3,5,13)            56.8974         estimate D2E/DX2                !
 ! D22   D(10,3,5,6)           178.6701         estimate D2E/DX2                !
 ! D23   D(10,3,5,12)           51.9855         estimate D2E/DX2                !
 ! D24   D(10,3,5,13)          -64.4317         estimate D2E/DX2                !
 ! D25   D(3,5,6,14)            20.329          estimate D2E/DX2                !
 ! D26   D(12,5,6,14)          145.9458         estimate D2E/DX2                !
 ! D27   D(13,5,6,14)          -95.2614         estimate D2E/DX2                !
 --------------------------------------------------------------------------------
 Trust Radius=3.00D-01 FncErr=1.00D-07 GrdErr=1.00D-07
 Number of steps in this run=    100 maximum allowed number of steps=    100.
 GradGradGradGradGradGradGradGradGradGradGradGradGradGradGradGradGradGrad

 Leave Link  103 at Wed Sep 20 14:36:37 2023, MaxMem=    33554432 cpu:         0.0
 (Enter /mnt/storage/apps/eb/software/gaussian/09/l202.exe)
                          Input orientation:                          
 ---------------------------------------------------------------------
 Center     Atomic      Atomic             Coordinates (Angstroms)
 Number     Number       Type             X           Y           Z
 ---------------------------------------------------------------------
      1          8           0        2.198439    0.042805   -0.463044
      2          6           0        0.962450   -0.568308   -0.381165
      3          6           0       -0.148222    0.492262   -0.322949
      4          8           0        0.037952    1.303658    0.802577
      5          6           0       -1.497236   -0.176183   -0.148367
      6          8           0       -1.539246   -0.942074    0.999208
      7          1           0        2.750410   -0.165366    0.316518
      8          1           0        0.883791   -1.139838    0.584048
      9          1           0        0.769644   -1.212024   -1.259244
     10          1           0       -0.132045    1.073622   -1.250083
     11          1           0        0.575270    2.079506    0.548535
     12          1           0       -1.777460   -0.749817   -1.061470
     13          1           0       -2.234292    0.657099   -0.030764
     14          1           0       -0.849455   -0.695342    1.666198
 ---------------------------------------------------------------------
                    Distance matrix (angstroms):
                    1          2          3          4          5
     1  O    0.000000
     2  C    1.381243   0.000000
     3  C    2.393419   1.536812   0.000000
     4  O    2.803436   2.400041   1.399940   0.000000
     5  C    3.715507   2.501602   1.515631   2.334743   0.000000
     6  O    4.132609   2.881599   2.395906   2.751278   1.380320
     7  H    0.977611   1.961103   3.040306   3.122773   4.273024
     8  H    2.055078   1.124487   2.133412   2.594970   2.671021
     9  H    2.061549   1.105698   2.150283   3.333937   2.728692
    10  H    2.667053   2.156124   1.094449   2.072493   2.153958
    11  H    2.793944   2.832873   1.949941   0.977337   3.141510
    12  H    4.098065   2.828934   2.177749   3.314687   1.114154
    13  H    4.495923   3.441448   2.112873   2.505112   1.118678
    14  H    3.790540   2.736939   2.420503   2.351453   1.995443
                    6          7          8          9         10
     6  O    0.000000
     7  H    4.412538   0.000000
     8  H    2.466288   2.122601   0.000000
     9  H    3.241057   2.738969   1.848233   0.000000
    10  H    3.332050   3.506833   3.048830   2.457093   0.000000
    11  H    3.715404   3.134408   3.234289   3.760321   2.178790
    12  H    2.083291   4.768862   3.153110   2.596245   2.463310
    13  H    2.025163   5.064021   3.650948   3.745186   2.465699
    14  H    0.990739   3.880920   2.091116   3.383290   3.485485
                   11         12         13         14
    11  H    0.000000
    12  H    4.016531   0.000000
    13  H    3.201947   1.802904   0.000000
    14  H    3.313426   2.881724   2.574209   0.000000
 Stoichiometry    C3H8O3
 Framework group  C1[X(C3H8O3)]
 Deg. of freedom    36
 Full point group                 C1      NOp   1
 Largest Abelian subgroup         C1      NOp   1
 Largest concise Abelian subgroup C1      NOp   1
                         Standard orientation:                         
 ---------------------------------------------------------------------
 Center     Atomic      Atomic             Coordinates (Angstroms)
 Number     Number       Type             X           Y           Z
 ---------------------------------------------------------------------
      1          8           0       -2.222709   -0.286743   -0.045943
      2          6           0       -0.932736   -0.768052    0.064244
      3          6           0        0.006718    0.346023    0.552150
      4          8           0       -0.010858    1.406598   -0.361472
      5          6           0        1.435314   -0.158590    0.592362
      6          8           0        1.854098   -0.595725   -0.648128
      7          1           0       -2.538219   -0.323497   -0.970511
      8          1           0       -0.548599   -1.062720   -0.950684
      9          1           0       -0.871860   -1.602458    0.787174
     10          1           0       -0.309522    0.664391    1.550374
     11          1           0       -0.692578    2.050604   -0.086332
     12          1           0        1.562417   -0.928485    1.387626
     13          1           0        2.060337    0.725926    0.872395
     14          1           0        1.317999   -0.233095   -1.398236
 ---------------------------------------------------------------------
 Rotational constants (GHZ):      6.0413606      2.3823312      2.0769162
 Leave Link  202 at Wed Sep 20 14:36:37 2023, MaxMem=    33554432 cpu:         0.0
 (Enter /mnt/storage/apps/eb/software/gaussian/09/l301.exe)
 Standard basis: 6-31G(d) (6D, 7F)
 Ernie: Thresh=  0.10000D-02 Tol=  0.10000D-05 Strict=F.
 There are   106 symmetry adapted cartesian basis functions of A   symmetry.
 There are   106 symmetry adapted basis functions of A   symmetry.
   106 basis functions,   200 primitive gaussians,   106 cartesian basis functions
    25 alpha electrons       25 beta electrons
       nuclear repulsion energy       267.1607805480 Hartrees.
 IExCor=    0 DFT=F Ex=HF Corr=None ExCW=0 ScaHFX=  1.000000
 ScaDFX=  1.000000  1.000000  1.000000  1.000000 ScalE2=  1.000000  1.000000
 IRadAn=      0 IRanWt=     -1 IRanGd=            0 ICorTp=0 IEmpDi=  4
 NAtoms=   14 NActive=   14 NUniq=   14 SFac= 1.00D+00 NAtFMM=   60 NAOKFM=F Big=F
 Integral buffers will be    131072 words long.
 Raffenetti 1 integral format.
 Two-electron integral symmetry is turned on.
 Leave Link  301 at Wed Sep 20 14:36:37 2023, MaxMem=    33554432 cpu:         0.0
 (Enter /mnt/storage/apps/eb/software/gaussian/09/l302.exe)
 NPDir=0 NMtPBC=     1 NCelOv=     1 NCel=       1 NClECP=     1 NCelD=      1
         NCelK=      1 NCelE2=     1 NClLst=     1 CellRange=     0.0.
 One-electron integrals computed using PRISM.
 NBasis=   106 RedAO= T EigKep=  3.17D-03  NBF=   106
 NBsUse=   106 1.00D-06 EigRej= -1.00D+00 NBFU=   106
 Leave Link  302 at Wed Sep 20 14:36:37 2023, MaxMem=    33554432 cpu:         0.1
 (Enter /mnt/storage/apps/eb/software/gaussian/09/l303.exe)
 DipDrv:  MaxL=1.
 Leave Link  303 at Wed Sep 20 14:36:37 2023, MaxMem=    33554432 cpu:         0.0
 (Enter /mnt/storage/apps/eb/software/gaussian/09/l401.exe)
 ExpMin= 1.61D-01 ExpMax= 5.48D+03 ExpMxC= 8.25D+02 IAcc=1 IRadAn=         1 AccDes= 0.00D+00
 Harris functional with IExCor=  205 and IRadAn=       1 diagonalized for initial guess.
 HarFok:  IExCor=  205 AccDes= 0.00D+00 IRadAn=         1 IDoV= 1 UseB2=F ITyADJ=14
 ICtDFT=  3500011 ScaDFX=  1.000000  1.000000  1.000000  1.000000
 FoFCou: FMM=F IPFlag=           0 FMFlag=      100000 FMFlg1=           0
         NFxFlg=           0 DoJE=T BraDBF=F KetDBF=T FulRan=T
         wScrn=  0.000000 ICntrl=     500 IOpCl=  0 I1Cent=   200000004 NGrid=           0
         NMat0=    1 NMatS0=      1 NMatT0=    0 NMatD0=    1 NMtDS0=    0 NMtDT0=    0
 Petite list used in FoFCou.
 Harris En= -343.188751001668    
 JPrj=0 DoOrth=F DoCkMO=F.
 Leave Link  401 at Wed Sep 20 14:36:38 2023, MaxMem=    33554432 cpu:         0.3
 (Enter /mnt/storage/apps/eb/software/gaussian/09/l508.exe)
 Direct SCF.
 Tight linear equation convergence will be used.
 RHF wavefunction.
 Quadratic Convergence SCF Method.
 Line search only if initial step raises energy.
 Integral symmetry usage will be decided dynamically.
 ReadGW:  IGet=1 IStart=         402 Next=         402 LGW=           0.
 Keep R1 ints in memory in canonical form, NReq=17057449.
 FoFCou: FMM=F IPFlag=           0 FMFlag=           0 FMFlg1=           0
         NFxFlg=           0 DoJE=F BraDBF=F KetDBF=F FulRan=T
         wScrn=  0.000000 ICntrl=     600 IOpCl=  0 I1Cent=           0 NGrid=           0
         NMat0=    1 NMatS0=   5671 NMatT0=    0 NMatD0=    1 NMtDS0=    0 NMtDT0=    0
 Symmetry not used in FoFCou.
 Iteration   1 EE= -342.546923398097                                    Grad=9.331D-01 Max rot=    7.4620 deg.
 Gradient too large for Newton-Raphson -- use scaled steepest descent instead.
 Alpha Gap=     0.559 HL deriv= 1.41D-02
     ILin= 1 X=0.000D+00 Y=-3.425469233981D+02 DE= 0.00D+00 F= -6.79D-01
     ILin= 2 X=3.000D-01 Y=-3.427066230115D+02 DE=-1.60D-01 F= -3.84D-01
     ILin= 3 X=5.000D-01 Y=-3.427636322392D+02 DE=-2.17D-01 F= -1.85D-01
     ILin= 4 X=9.000D-01 Y=-3.427578354232D+02 DE=-2.11D-01 F=  2.15D-01
     An  expanding polynomial of degree  4 produced  0.6857
 Iteration   2 EE= -342.780852103455     Delta-E=       -0.233928705358 Grad=2.952D-01 Max rot=    3.1994 deg.
 Gradient too large for Newton-Raphson -- use scaled steepest descent instead.
 Alpha Gap=     0.643 HL deriv= 3.32D-05
     ILin= 1 X=0.000D+00 Y=-3.427808521035D+02 DE= 0.00D+00 F= -2.77D-02
     ILin= 2 X=5.000D-01 Y=-3.427907763565D+02 DE=-9.92D-03 F= -1.20D-02
     ILin= 3 X=9.000D-01 Y=-3.427930511111D+02 DE=-1.22D-02 F=  5.85D-04
     Accept linear search using points  2 and  3.
     An  expanding polynomial of degree  3 produced  0.7335
 Iteration   3 EE= -342.792714041302     Delta-E=       -0.011861937847 Grad=8.953D-02 Max rot=    0.8277 deg.
 Gradient too large for Newton-Raphson -- use scaled steepest descent instead.
 Alpha Gap=     0.640 HL deriv= 1.19D-03
     ILin= 1 X=0.000D+00 Y=-3.427927140413D+02 DE= 0.00D+00 F= -3.32D-03
     ILin= 2 X=7.000D-01 Y=-3.427942328690D+02 DE=-1.52D-03 F= -1.02D-03
     Reject lnstep minimum 1.055D+00 FVal=-3.427945880557D+02 Lims=  0.00D+00  7.00D-01
     ILin= 3 X=1.400D+00 Y=-3.427941407150D+02 DE=-1.43D-03 F=  1.28D-03
     An  expanding polynomial of degree  3 produced  1.0100
 Iteration   4 EE= -342.794390789307     Delta-E=       -0.001676748005 Grad=2.115D-02 Max rot=    0.1088 deg.
 Gradient too large for Newton-Raphson -- use scaled steepest descent instead.
 Alpha Gap=     0.644 HL deriv= 1.49D-04
     ILin= 1 X=0.000D+00 Y=-3.427943907893D+02 DE= 0.00D+00 F= -5.42D-04
     ILin= 2 X=9.000D-01 Y=-3.427945561677D+02 DE=-1.65D-04 F=  1.74D-04
     Accept linear search using points  1 and  2.
     An  expanding polynomial of degree  2 produced  0.6539
 Iteration   5 EE= -342.794574913567     Delta-E=       -0.000184124260 Grad=6.584D-03 Max rot=    0.0412 deg.
 QCNR:  CnvC1=6.36D-09 CnvC2=6.36D-08
 LinEq1:  Iter=  0 NonCon=     1 RMS=7.63D-05 Max=8.87D-04 NDo=     1
 AX will form     1 AO Fock derivatives at one time.
 LinEq1:  Iter=  1 NonCon=     1 RMS=2.36D-05 Max=1.37D-04 NDo=     1
 LinEq1:  Iter=  2 NonCon=     1 RMS=4.50D-06 Max=3.21D-05 NDo=     1
 LinEq1:  Iter=  3 NonCon=     1 RMS=5.87D-07 Max=6.58D-06 NDo=     1
 LinEq1:  Iter=  4 NonCon=     1 RMS=1.41D-07 Max=1.16D-06 NDo=     1
 LinEq1:  Iter=  5 NonCon=     1 RMS=5.07D-08 Max=5.05D-07 NDo=     1
 LinEq1:  Iter=  6 NonCon=     1 RMS=1.37D-08 Max=1.03D-07 NDo=     1
 LinEq1:  Iter=  7 NonCon=     0 RMS=4.29D-09 Max=3.21D-08 NDo=     1
 Linear equations converged to 6.364D-09 6.364D-08 after     7 iterations.
 Angle between quadratic step and gradient=  34.10 degrees.
     ILin= 1 X=0.000D+00 Y=-3.427945749136D+02 DE= 0.00D+00 F= -7.55D-05
     ILin= 2 X=1.000D+00 Y=-3.427946126462D+02 DE=-3.77D-05 F=  2.29D-08
     Accept linear search using points  1 and  2.
     An  expanding polynomial of degree  2 produced  0.9997
     Minimum is close to point  2 DX= -3.03D-04 DF= -3.47D-12 DXR=  3.03D-04 DFR=  9.19D-08 which will be used.
 Iteration   6 EE= -342.794612646215     Delta-E=       -0.000037732648 Grad=4.972D-06 Max rot=    0.0000 deg.
 QCNR:  CnvC1=4.97D-11 CnvC2=4.97D-10
 LinEq1:  Iter=  0 NonCon=     1 RMS=7.03D-08 Max=6.29D-07 NDo=     1
 LinEq1:  Iter=  1 NonCon=     1 RMS=2.31D-08 Max=2.31D-07 NDo=     1
 LinEq1:  Iter=  2 NonCon=     1 RMS=3.00D-09 Max=2.31D-08 NDo=     1
 LinEq1:  Iter=  3 NonCon=     1 RMS=9.82D-10 Max=7.94D-09 NDo=     1
 LinEq1:  Iter=  4 NonCon=     1 RMS=3.28D-10 Max=2.84D-09 NDo=     1
 LinEq1:  Iter=  5 NonCon=     1 RMS=8.89D-11 Max=8.28D-10 NDo=     1
 LinEq1:  Iter=  6 NonCon=     0 RMS=2.19D-11 Max=2.34D-10 NDo=     1
 Linear equations converged to 4.972D-11 4.972D-10 after     6 iterations.
 Angle between quadratic step and gradient=  35.54 degrees.
     ILin= 1 X=0.000D+00 Y=-3.427946126462D+02 DE= 0.00D+00 F= -3.89D-11
     ILin= 2 X=1.000D+00 Y=-3.427946126462D+02 DE=-2.10D-11
 Iteration   7 EE= -342.794612646236     Delta-E=       -0.000000000021 Grad=2.985D-09 Max rot=    0.0000 deg.
 Rotation gradient small -- convergence achieved.
 SCF Done:  E(RHF) =  -342.794612646     a.u. after    7 cycles
            Convg  =    0.2985D-08                    28 Fock formations.
              S**2 =  0.0000                  -V/T =  2.0023
 Leave Link  508 at Wed Sep 20 14:36:39 2023, MaxMem=    33554432 cpu:         1.4
 (Enter /mnt/storage/apps/eb/software/gaussian/09/l601.exe)
 Copying SCF densities to generalized density rwf, IOpCl= 0 IROHF=0.

 **********************************************************************

            Population analysis using the SCF density.

 **********************************************************************

 Orbital symmetries:
       Occupied  (A) (A) (A) (A) (A) (A) (A) (A) (A) (A) (A) (A)
                 (A) (A) (A) (A) (A) (A) (A) (A) (A) (A) (A) (A)
                 (A)
       Virtual   (A) (A) (A) (A) (A) (A) (A) (A) (A) (A) (A) (A)
                 (A) (A) (A) (A) (A) (A) (A) (A) (A) (A) (A) (A)
                 (A) (A) (A) (A) (A) (A) (A) (A) (A) (A) (A) (A)
                 (A) (A) (A) (A) (A) (A) (A) (A) (A) (A) (A) (A)
                 (A) (A) (A) (A) (A) (A) (A) (A) (A) (A) (A) (A)
                 (A) (A) (A) (A) (A) (A) (A) (A) (A) (A) (A) (A)
                 (A) (A) (A) (A) (A) (A) (A) (A) (A)
 The electronic state is 1-A.
 Alpha  occ. eigenvalues --  -20.57134 -20.56834 -20.55487 -11.28072 -11.27906
 Alpha  occ. eigenvalues --  -11.27396  -1.39079  -1.36599  -1.34757  -1.02608
 Alpha  occ. eigenvalues --   -0.91358  -0.80715  -0.73738  -0.69876  -0.67855
 Alpha  occ. eigenvalues --   -0.63416  -0.62759  -0.59523  -0.57923  -0.54071
 Alpha  occ. eigenvalues --   -0.51007  -0.47826  -0.47080  -0.43636  -0.40749
 Alpha virt. eigenvalues --    0.19938   0.21944   0.24736   0.26356   0.30345
 Alpha virt. eigenvalues --    0.31784   0.34013   0.35418   0.38152   0.41398
 Alpha virt. eigenvalues --    0.42691   0.45025   0.49952   0.77479   0.79387
 Alpha virt. eigenvalues --    0.81036   0.83470   0.83985   0.89074   0.91359
 Alpha virt. eigenvalues --    0.94218   0.98566   1.05048   1.07055   1.08357
 Alpha virt. eigenvalues --    1.09706   1.12637   1.14313   1.15292   1.16636
 Alpha virt. eigenvalues --    1.17929   1.21011   1.26464   1.27629   1.30636
 Alpha virt. eigenvalues --    1.34361   1.37407   1.41398   1.47007   1.54187
 Alpha virt. eigenvalues --    1.56788   1.60318   1.65505   1.71421   1.79833
 Alpha virt. eigenvalues --    1.85052   1.90625   1.91967   1.98257   2.01976
 Alpha virt. eigenvalues --    2.05728   2.08579   2.16971   2.21428   2.25611
 Alpha virt. eigenvalues --    2.29190   2.38770   2.43557   2.46934   2.47853
 Alpha virt. eigenvalues --    2.49879   2.56718   2.58868   2.71989   2.75705
 Alpha virt. eigenvalues --    2.78316   2.79550   2.86562   2.87323   2.95400
 Alpha virt. eigenvalues --    3.03221   3.13423   3.20125   3.26781   3.28547
 Alpha virt. eigenvalues --    4.15777   4.20942   4.24101   4.67979   4.77703
 Alpha virt. eigenvalues --    4.97040
          Condensed to atoms (all electrons):
               1          2          3          4          5          6
     1  O    8.406349   0.198417  -0.060019   0.004901   0.002947   0.000073
     2  C    0.198417   4.858334   0.342185  -0.063537  -0.070837  -0.007384
     3  C   -0.060019   0.342185   4.980768   0.172056   0.358239  -0.036762
     4  O    0.004901  -0.063537   0.172056   8.465228  -0.061720  -0.001640
     5  C    0.002947  -0.070837   0.358239  -0.061720   4.784693   0.213023
     6  O    0.000073  -0.007384  -0.036762  -0.001640   0.213023   8.399032
     7  H    0.263339  -0.023566   0.002445   0.000540  -0.000172   0.000018
     8  H   -0.035965   0.394547  -0.045027  -0.001175  -0.005227   0.008325
     9  H   -0.037447   0.391201  -0.060284   0.003741   0.005218  -0.000007
    10  H    0.000395  -0.044656   0.394454  -0.031300  -0.037383   0.003077
    11  H    0.003554  -0.001369  -0.020663   0.260517   0.005983   0.000007
    12  H   -0.000037  -0.004039  -0.039539   0.003347   0.390427  -0.035388
    13  H   -0.000061   0.006178  -0.043507  -0.001138   0.398078  -0.046702
    14  H   -0.000150  -0.000900  -0.008804   0.008586  -0.031650   0.260079
               7          8          9         10         11         12
     1  O    0.263339  -0.035965  -0.037447   0.000395   0.003554  -0.000037
     2  C   -0.023566   0.394547   0.391201  -0.044656  -0.001369  -0.004039
     3  C    0.002445  -0.045027  -0.060284   0.394454  -0.020663  -0.039539
     4  O    0.000540  -0.001175   0.003741  -0.031300   0.260517   0.003347
     5  C   -0.000172  -0.005227   0.005218  -0.037383   0.005983   0.390427
     6  O    0.000018   0.008325  -0.000007   0.003077   0.000007  -0.035388
     7  H    0.314368  -0.010221   0.003293  -0.000199  -0.000168  -0.000002
     8  H   -0.010221   0.578728  -0.025430   0.004970  -0.000046  -0.000213
     9  H    0.003293  -0.025430   0.565770  -0.000513  -0.000031   0.001429
    10  H   -0.000199   0.004970  -0.000513   0.554784  -0.006732   0.000509
    11  H   -0.000168  -0.000046  -0.000031  -0.006732   0.304385  -0.000145
    12  H   -0.000002  -0.000213   0.001429   0.000509  -0.000145   0.564214
    13  H    0.000006   0.000171  -0.000330  -0.001164  -0.000422  -0.038817
    14  H   -0.000002   0.003751  -0.000007   0.000575  -0.000270   0.003997
              13         14
     1  O   -0.000061  -0.000150
     2  C    0.006178  -0.000900
     3  C   -0.043507  -0.008804
     4  O   -0.001138   0.008586
     5  C    0.398078  -0.031650
     6  O   -0.046702   0.260079
     7  H    0.000006  -0.000002
     8  H    0.000171   0.003751
     9  H   -0.000330  -0.000007
    10  H   -0.001164   0.000575
    11  H   -0.000422  -0.000270
    12  H   -0.038817   0.003997
    13  H    0.575193   0.001270
    14  H    0.001270   0.301945
 Mulliken charges:
               1
     1  O   -0.746296
     2  C    0.025424
     3  C    0.064458
     4  O   -0.758408
     5  C    0.048380
     6  O   -0.755752
     7  H    0.450321
     8  H    0.132814
     9  H    0.153396
    10  H    0.163182
    11  H    0.455400
    12  H    0.154257
    13  H    0.151245
    14  H    0.461579
 Sum of Mulliken charges =   0.00000
 Mulliken charges with hydrogens summed into heavy atoms:
               1
     1  O   -0.295975
     2  C    0.311634
     3  C    0.227640
     4  O   -0.303007
     5  C    0.353881
     6  O   -0.294173
 Electronic spatial extent (au):  <R**2>=            627.5529
 Charge=              0.0000 electrons
 Dipole moment (field-independent basis, Debye):
    X=             -1.8838    Y=              0.6832    Z=             -0.0615  Tot=              2.0048
 Quadrupole moment (field-independent basis, Debye-Ang):
   XX=            -43.1971   YY=            -35.7092   ZZ=            -32.0375
   XY=              0.0195   XZ=              5.8605   YZ=              1.0901
 Traceless Quadrupole moment (field-independent basis, Debye-Ang):
   XX=             -6.2158   YY=              1.2721   ZZ=              4.9438
   XY=              0.0195   XZ=              5.8605   YZ=              1.0901
 Octapole moment (field-independent basis, Debye-Ang**2):
  XXX=            -12.5161  YYY=             12.2315  ZZZ=            -10.6266  XYY=             -9.5074
  XXY=              7.9109  XXZ=             -9.2205  XZZ=             -3.7870  YZZ=             -1.0821
  YYZ=              2.2553  XYZ=             -3.4790
 Hexadecapole moment (field-independent basis, Debye-Ang**3):
 XXXX=           -496.1876 YYYY=           -151.9783 ZZZZ=            -95.2880 XXXY=              7.0880
 XXXZ=             43.3380 YYYX=            -14.1964 YYYZ=             -0.1447 ZZZX=             -2.7786
 ZZZY=              2.1179 XXYY=           -106.2689 XXZZ=            -80.5443 YYZZ=            -46.6011
 XXYZ=             -0.7595 YYXZ=              2.5448 ZZXY=              0.8328
 N-N= 2.671607805480D+02 E-N=-1.342359587272D+03  KE= 3.419969035252D+02
 No NMR shielding tensors so no spin-rotation constants.
 Leave Link  601 at Wed Sep 20 14:36:39 2023, MaxMem=    33554432 cpu:         0.1
 (Enter /mnt/storage/apps/eb/software/gaussian/09/l701.exe)
 Compute integral first derivatives.
 ... and contract with generalized density number  0.
 Leave Link  701 at Wed Sep 20 14:36:39 2023, MaxMem=    33554432 cpu:         0.1
 (Enter /mnt/storage/apps/eb/software/gaussian/09/l702.exe)
 L702 exits ... SP integral derivatives will be done elsewhere.
 Leave Link  702 at Wed Sep 20 14:36:39 2023, MaxMem=    33554432 cpu:         0.0
 (Enter /mnt/storage/apps/eb/software/gaussian/09/l703.exe)
 Compute integral first derivatives, UseDBF=F ICtDFT=           0.
 Integral derivatives from FoFJK, PRISM(SPDF).
 Calling FoFJK, ICntrl=      2127 FMM=F ISym2X=0 I1Cent= 0 IOpClX= 0 NMat=1 NMatS=1 NMatT=0.
 FoFJK:  IHMeth= 1 ICntrl=    2127 DoSepK=F KAlg= 0 I1Cent=   0 FoldK=F
 IRaf=         0 NMat=   1 IRICut=       1 DoRegI=T DoRafI=F ISym2E= 0.
 FoFCou: FMM=F IPFlag=           0 FMFlag=      100000 FMFlg1=         800
         NFxFlg=           0 DoJE=F BraDBF=F KetDBF=F FulRan=T
         wScrn=  0.000000 ICntrl=    2127 IOpCl=  0 I1Cent=           0 NGrid=           0
         NMat0=    1 NMatS0=      1 NMatT0=    0 NMatD0=    1 NMtDS0=    0 NMtDT0=    0
 Symmetry not used in FoFCou.
 Leave Link  703 at Wed Sep 20 14:36:41 2023, MaxMem=    33554432 cpu:         1.4
 (Enter /mnt/storage/apps/eb/software/gaussian/09/l716.exe)
 Dipole        =-7.41124867D-01 2.68803102D-01-2.41943658D-02
 ***** Axes restored to original set *****
 -------------------------------------------------------------------
 Center     Atomic                   Forces (Hartrees/Bohr)
 Number     Number              X              Y              Z
 -------------------------------------------------------------------
      1        8           0.036423482    0.001043149    0.019311345
      2        6          -0.023535897   -0.007962478    0.020534548
      3        6           0.007881437   -0.015624811   -0.010216972
      4        8           0.019577098    0.033790424   -0.007448976
      5        6          -0.018006190    0.036566318   -0.010147826
      6        8           0.021990734   -0.017535167    0.033926889
      7        1          -0.021258437    0.006444374   -0.027911016
      8        1           0.002869919    0.003795010   -0.029062823
      9        1           0.007737118    0.002665919    0.014098448
     10        1          -0.001396061   -0.001142787    0.005538375
     11        1          -0.014769489   -0.027336750    0.011047090
     12        1           0.005479390    0.002210632    0.021595113
     13        1           0.009712593   -0.015884381   -0.007975148
     14        1          -0.032705696   -0.001029455   -0.033289047
 -------------------------------------------------------------------
 Cartesian Forces:  Max     0.036566318 RMS     0.018932571
 Leave Link  716 at Wed Sep 20 14:36:41 2023, MaxMem=    33554432 cpu:         0.0
 (Enter /mnt/storage/apps/eb/software/gaussian/09/l103.exe)

 GradGradGradGradGradGradGradGradGradGradGradGradGradGradGradGradGradGrad
 Berny optimization.
 FormGI is forming the generalized inverse of G from B-inverse, IUseBI=4.
 Internal  Forces:  Max     0.045438356 RMS     0.011644487
 Search for a local minimum.
 Step number   1 out of a maximum of  100
 All quantities printed in internal units (Hartrees-Bohrs-Radians)
 RMS Force = .11644D-01 SwitMx=.10000D-02 MixMth= 1
 Mixed Optimization -- RFO/linear search
 Second derivative matrix not updated -- first step.
 ITU=  0
     Eigenvalues ---    0.00279   0.00559   0.01693   0.01940   0.01952
     Eigenvalues ---    0.04615   0.05007   0.05286   0.05336   0.06272
     Eigenvalues ---    0.06302   0.07109   0.11177   0.11561   0.13764
     Eigenvalues ---    0.13990   0.15989   0.16000   0.16000   0.16000
     Eigenvalues ---    0.19460   0.22064   0.22225   0.28803   0.30791
     Eigenvalues ---    0.31113   0.31698   0.32164   0.33060   0.34304
     Eigenvalues ---    0.45630   0.48876   0.49044   0.49354   0.51852
     Eigenvalues ---    0.51905
 RFO step:  Lambda=-2.68832676D-02 EMin= 2.78999571D-03
 Linear search not attempted -- first point.
 Iteration  1 RMS(Cart)=  0.10294432 RMS(Int)=  0.00344527
 Iteration  2 RMS(Cart)=  0.00466695 RMS(Int)=  0.00083721
 Iteration  3 RMS(Cart)=  0.00001501 RMS(Int)=  0.00083715
 Iteration  4 RMS(Cart)=  0.00000003 RMS(Int)=  0.00083715
 ITry= 1 IFail=0 DXMaxC= 4.71D-01 DCOld= 1.00D+10 DXMaxT= 3.00D-01 DXLimC= 3.00D+00 Rises=F
 Variable       Old X    -DE/DX   Delta X   Delta X   Delta X     New X
                                 (Linear)    (Quad)   (Total)
    R1        2.61017   0.01739   0.00000   0.03373   0.03373   2.64390
    R2        1.84742  -0.03563   0.00000  -0.06533  -0.06533   1.78209
    R3        2.90415  -0.00240   0.00000  -0.00762  -0.00762   2.89653
    R4        2.12497  -0.02708   0.00000  -0.08010  -0.08010   2.04487
    R5        2.08947  -0.01410   0.00000  -0.03944  -0.03944   2.05003
    R6        2.64550   0.00727   0.00000   0.01505   0.01505   2.66056
    R7        2.86413   0.01061   0.00000   0.03168   0.03168   2.89581
    R8        2.06821  -0.00532   0.00000  -0.01438  -0.01438   2.05383
    R9        1.84690  -0.03269   0.00000  -0.05988  -0.05988   1.78702
   R10        2.60843   0.01116   0.00000   0.02157   0.02157   2.62999
   R11        2.10545  -0.02021   0.00000  -0.05800  -0.05800   2.04745
   R12        2.11400  -0.01907   0.00000  -0.05546  -0.05546   2.05854
   R13        1.87223  -0.04544   0.00000  -0.08731  -0.08731   1.78492
    A1        1.94309  -0.00309   0.00000  -0.01651  -0.01651   1.92658
    A2        1.92157  -0.00340   0.00000  -0.00569  -0.00617   1.91540
    A3        1.91596   0.00185   0.00000   0.02665   0.02550   1.94146
    A4        1.94608  -0.00458   0.00000  -0.04634  -0.04623   1.89986
    A5        1.84179   0.00826   0.00000   0.06359   0.06269   1.90448
    A6        1.88161   0.00628   0.00000   0.02982   0.02955   1.91116
    A7        1.95364  -0.00767   0.00000  -0.06166  -0.06248   1.89116
    A8        1.91169  -0.00420   0.00000  -0.00638  -0.00851   1.90317
    A9        1.92119   0.01209   0.00000   0.06694   0.06664   1.98782
   A10        1.90055  -0.00418   0.00000  -0.03499  -0.03461   1.86594
   A11        1.85603   0.00036   0.00000   0.02290   0.02198   1.87801
   A12        1.95113   0.00118   0.00000  -0.01467  -0.01493   1.93620
   A13        1.92304  -0.00483   0.00000  -0.03052  -0.02963   1.89342
   A14        1.90100   0.00327   0.00000   0.01748   0.01748   1.91848
   A15        1.94719   0.01468   0.00000   0.05996   0.05832   2.00551
   A16        1.93535  -0.00326   0.00000  -0.02459  -0.02372   1.91163
   A17        1.84421   0.00251   0.00000   0.04418   0.04183   1.88605
   A18        1.96929  -0.01162   0.00000  -0.08609  -0.08551   1.88378
   A19        1.88163  -0.00174   0.00000   0.02362   0.01990   1.90154
   A20        1.87964  -0.00011   0.00000  -0.00906  -0.00865   1.87099
   A21        1.98268  -0.01618   0.00000  -0.08657  -0.08657   1.89611
    D1        2.04545   0.00230   0.00000   0.03173   0.03171   2.07716
    D2        0.02521  -0.00681   0.00000  -0.05742  -0.05732  -0.03211
    D3       -2.15005   0.00496   0.00000   0.03546   0.03538  -2.11468
    D4       -1.04703  -0.00034   0.00000  -0.01143  -0.01190  -1.05893
    D5       -3.08182  -0.00533   0.00000  -0.07424  -0.07476   3.12660
    D6        1.09151  -0.00422   0.00000  -0.05595  -0.05600   1.03552
    D7        1.01940   0.00477   0.00000   0.05315   0.05314   1.07254
    D8       -1.01539  -0.00021   0.00000  -0.00966  -0.00973  -1.02512
    D9       -3.12524   0.00090   0.00000   0.00864   0.00903  -3.11620
   D10        3.10972   0.00337   0.00000   0.02998   0.03010   3.13982
   D11        1.07493  -0.00161   0.00000  -0.03283  -0.03276   1.04217
   D12       -1.03492  -0.00050   0.00000  -0.01454  -0.01400  -1.04892
   D13        1.60699  -0.00885   0.00000  -0.10140  -0.10113   1.50586
   D14       -2.60067   0.00347   0.00000  -0.01238  -0.01262  -2.61329
   D15       -0.50114  -0.00151   0.00000  -0.04349  -0.04352  -0.54466
   D16        1.02208  -0.00192   0.00000   0.02069   0.02035   1.04244
   D17       -1.18898   0.00468   0.00000   0.10748   0.10805  -1.08093
   D18        3.06234   0.00503   0.00000   0.10558   0.10718  -3.11366
   D19       -1.04721  -0.00357   0.00000  -0.02056  -0.02210  -1.06932
   D20        3.02491   0.00303   0.00000   0.06623   0.06559   3.09050
   D21        0.99305   0.00339   0.00000   0.06433   0.06472   1.05777
   D22        3.11838  -0.00247   0.00000   0.00051  -0.00045   3.11793
   D23        0.90732   0.00413   0.00000   0.08730   0.08725   0.99457
   D24       -1.12455   0.00448   0.00000   0.08541   0.08638  -1.03817
   D25        0.35481   0.00752   0.00000   0.12842   0.12926   0.48407
   D26        2.54723   0.00575   0.00000   0.07566   0.07526   2.62250
   D27       -1.66262  -0.00248   0.00000   0.02847   0.02803  -1.63460
         Item               Value     Threshold  Converged?
 Maximum Force            0.045438     0.000015     NO 
 RMS     Force            0.011644     0.000010     NO 
 Maximum Displacement     0.471241     0.000060     NO 
 RMS     Displacement     0.101758     0.000040     NO 
 Predicted change in Energy=-1.588006D-02
 Lowest energy point so far.  Saving SCF results.
 GradGradGradGradGradGradGradGradGradGradGradGradGradGradGradGradGradGrad

 Leave Link  103 at Wed Sep 20 14:36:41 2023, MaxMem=    33554432 cpu:         0.0
 (Enter /mnt/storage/apps/eb/software/gaussian/09/l202.exe)
                          Input orientation:                          
 ---------------------------------------------------------------------
 Center     Atomic      Atomic             Coordinates (Angstroms)
 Number     Number       Type             X           Y           Z
 ---------------------------------------------------------------------
      1          8           0        2.221004    0.098616   -0.532553
      2          6           0        0.998434   -0.561963   -0.370023
      3          6           0       -0.136768    0.464126   -0.281312
      4          8           0        0.084465    1.298995    0.830554
      5          6           0       -1.527026   -0.160517   -0.122444
      6          8           0       -1.688204   -0.951323    1.011384
      7          1           0        2.797252   -0.094756    0.188467
      8          1           0        0.997372   -1.169954    0.525119
      9          1           0        0.834283   -1.210730   -1.223844
     10          1           0       -0.119329    1.035575   -1.205629
     11          1           0        0.647405    2.018495    0.586282
     12          1           0       -1.751167   -0.770607   -0.989300
     13          1           0       -2.258896    0.645972   -0.098204
     14          1           0       -1.098825   -0.641930    1.681501
 ---------------------------------------------------------------------
                    Distance matrix (angstroms):
                    1          2          3          4          5
     1  O    0.000000
     2  C    1.399092   0.000000
     3  C    2.399127   1.532779   0.000000
     4  O    2.804242   2.395807   1.407905   0.000000
     5  C    3.779295   2.569125   1.532395   2.373875   0.000000
     6  O    4.332208   3.045966   2.466072   2.870364   1.391733
     7  H    0.943039   1.940603   3.023494   3.116735   4.335940
     8  H    2.055533   1.082098   2.146351   2.649982   2.794797
     9  H    2.028612   1.084829   2.153242   3.328889   2.809237
    10  H    2.609231   2.121263   1.086840   2.063241   2.141386
    11  H    2.722856   2.774258   1.945177   0.945649   3.158883
    12  H    4.091737   2.826188   2.152230   3.311294   1.083461
    13  H    4.534067   3.484707   2.137761   2.603914   1.089332
    14  H    4.058535   2.934901   2.449806   2.427236   1.915550
                    6          7          8          9         10
     6  O    0.000000
     7  H    4.640067   0.000000
     8  H    2.737987   2.123430   0.000000
     9  H    3.380307   2.663319   1.757024   0.000000
    10  H    3.365157   3.424558   3.017760   2.440409   0.000000
    11  H    3.802053   3.040712   3.208182   3.706667   2.182879
    12  H    2.009816   4.746791   3.163449   2.633110   2.443764
    13  H    2.026875   5.118153   3.780132   3.779175   2.440477
    14  H    0.944537   4.208084   2.451545   3.535742   3.479792
                   11         12         13         14
    11  H    0.000000
    12  H    4.001837   0.000000
    13  H    3.286173   1.748867   0.000000
    14  H    3.365514   2.752324   2.484312   0.000000
 Stoichiometry    C3H8O3
 Framework group  C1[X(C3H8O3)]
 Deg. of freedom    36
 Full point group                 C1      NOp   1
 RotChk:  IX=0 Diff= 8.59D-02
 Largest Abelian subgroup         C1      NOp   1
 Largest concise Abelian subgroup C1      NOp   1
                         Standard orientation:                         
 ---------------------------------------------------------------------
 Center     Atomic      Atomic             Coordinates (Angstroms)
 Number     Number       Type             X           Y           Z
 ---------------------------------------------------------------------
      1          8           0       -2.273943   -0.290958   -0.031308
      2          6           0       -0.964185   -0.782643   -0.015833
      3          6           0       -0.013455    0.293364    0.520573
      4          8           0       -0.070557    1.418900   -0.323290
      5          6           0        1.450108   -0.154132    0.597814
      6          8           0        2.011497   -0.534953   -0.617397
      7          1           0       -2.612542   -0.285922   -0.911450
      8          1           0       -0.644021   -1.076346   -1.006878
      9          1           0       -0.924650   -1.654598    0.628361
     10          1           0       -0.351084    0.542179    1.523229
     11          1           0       -0.779780    1.985164   -0.057586
     12          1           0        1.537766   -0.989524    1.282157
     13          1           0        2.032631    0.666443    1.014910
     14          1           0        1.570899   -0.070843   -1.312109
 ---------------------------------------------------------------------
 Rotational constants (GHZ):      6.2577182      2.2345625      1.9555837
 Leave Link  202 at Wed Sep 20 14:36:41 2023, MaxMem=    33554432 cpu:         0.0
 (Enter /mnt/storage/apps/eb/software/gaussian/09/l301.exe)
 Standard basis: 6-31G(d) (6D, 7F)
 Ernie: Thresh=  0.10000D-02 Tol=  0.10000D-05 Strict=F.
 There are   106 symmetry adapted cartesian basis functions of A   symmetry.
 There are   106 symmetry adapted basis functions of A   symmetry.
   106 basis functions,   200 primitive gaussians,   106 cartesian basis functions
    25 alpha electrons       25 beta electrons
       nuclear repulsion energy       264.8302761821 Hartrees.
 IExCor=    0 DFT=F Ex=HF Corr=None ExCW=0 ScaHFX=  1.000000
 ScaDFX=  1.000000  1.000000  1.000000  1.000000 ScalE2=  1.000000  1.000000
 IRadAn=      0 IRanWt=     -1 IRanGd=            0 ICorTp=0 IEmpDi=  4
 NAtoms=   14 NActive=   14 NUniq=   14 SFac= 1.00D+00 NAtFMM=   60 NAOKFM=F Big=F
 Integral buffers will be    131072 words long.
 Raffenetti 1 integral format.
 Two-electron integral symmetry is turned on.
 Leave Link  301 at Wed Sep 20 14:36:41 2023, MaxMem=    33554432 cpu:         0.0
 (Enter /mnt/storage/apps/eb/software/gaussian/09/l302.exe)
 NPDir=0 NMtPBC=     1 NCelOv=     1 NCel=       1 NClECP=     1 NCelD=      1
         NCelK=      1 NCelE2=     1 NClLst=     1 CellRange=     0.0.
 One-electron integrals computed using PRISM.
 NBasis=   106 RedAO= T EigKep=  3.50D-03  NBF=   106
 NBsUse=   106 1.00D-06 EigRej= -1.00D+00 NBFU=   106
 Leave Link  302 at Wed Sep 20 14:36:41 2023, MaxMem=    33554432 cpu:         0.1
 (Enter /mnt/storage/apps/eb/software/gaussian/09/l303.exe)
 DipDrv:  MaxL=1.
 Leave Link  303 at Wed Sep 20 14:36:41 2023, MaxMem=    33554432 cpu:         0.0
 (Enter /mnt/storage/apps/eb/software/gaussian/09/l401.exe)
 Initial guess from the checkpoint file:  "/scratch/nca121/18446470/Gau-12878.chk"
 B after Tr=     0.000000    0.000000    0.000000
         Rot=    0.999696   -0.021678    0.007910   -0.008645 Ang=  -2.82 deg.
 Guess basis will be translated and rotated to current coordinates.
 JPrj=2 DoOrth=T DoCkMO=T.
 Generating alternative initial guess.
 ExpMin= 1.61D-01 ExpMax= 5.48D+03 ExpMxC= 8.25D+02 IAcc=1 IRadAn=         1 AccDes= 0.00D+00
 Harris functional with IExCor=  205 and IRadAn=       1 diagonalized for initial guess.
 HarFok:  IExCor=  205 AccDes= 0.00D+00 IRadAn=         1 IDoV= 1 UseB2=F ITyADJ=14
 ICtDFT=  3500011 ScaDFX=  1.000000  1.000000  1.000000  1.000000
 FoFCou: FMM=F IPFlag=           0 FMFlag=      100000 FMFlg1=           0
         NFxFlg=           0 DoJE=T BraDBF=F KetDBF=T FulRan=T
         wScrn=  0.000000 ICntrl=     500 IOpCl=  0 I1Cent=   200000004 NGrid=           0
         NMat0=    1 NMatS0=      1 NMatT0=    0 NMatD0=    1 NMtDS0=    0 NMtDT0=    0
 Petite list used in FoFCou.
 Harris En= -343.195745552857    
 Leave Link  401 at Wed Sep 20 14:36:41 2023, MaxMem=    33554432 cpu:         0.3
 (Enter /mnt/storage/apps/eb/software/gaussian/09/l508.exe)
 Direct SCF.
 Tight linear equation convergence will be used.
 RHF wavefunction.
 Quadratic Convergence SCF Method.
 Line search only if initial step raises energy.
 Integral symmetry usage will be decided dynamically.
 ReadGW:  IGet=1 IStart=         402 Next=         402 LGW=           0.
 Keep R1 ints in memory in canonical form, NReq=17057128.
 FoFCou: FMM=F IPFlag=           0 FMFlag=           0 FMFlg1=           0
         NFxFlg=           0 DoJE=F BraDBF=F KetDBF=F FulRan=T
         wScrn=  0.000000 ICntrl=     600 IOpCl=  0 I1Cent=           0 NGrid=           0
         NMat0=    1 NMatS0=   5671 NMatT0=    0 NMatD0=    1 NMtDS0=    0 NMtDT0=    0
 Symmetry not used in FoFCou.
 Iteration   1 EE= -342.795469465324                                    Grad=1.313D-01 Max rot=    0.5501 deg.
 Gradient too large for Newton-Raphson -- use scaled steepest descent instead.
 Alpha Gap=     1.805 HL deriv= 2.23D-03
     ILin= 1 X=0.000D+00 Y=-3.427954694653D+02 DE= 0.00D+00 F= -1.44D-02
     ILin= 2 X=3.000D-01 Y=-3.427993019984D+02 DE=-3.83D-03 F= -1.11D-02
     ILin= 3 X=6.000D-01 Y=-3.428021568807D+02 DE=-6.69D-03 F= -7.89D-03
     ILin= 4 X=1.200D+00 Y=-3.428049324993D+02 DE=-9.46D-03 F= -1.37D-03
     Reject lnstep minimum 1.414D+00 FVal=-3.428052561694D+02 Lims=  6.00D-01  1.20D+00
     ILin= 5 X=2.400D+00 Y=-3.427987417075D+02 DE=-3.27D-03 F=  1.17D-02
     An  expanding polynomial of degree  5 produced  1.3256
     Minimum is close to point  4 DX=  1.26D-01 DF= -8.57D-05 DXR=  9.47D-02 DFR=  9.06D-03 which will be used.
 Iteration   2 EE= -342.804932499329     Delta-E=       -0.009463034005 Grad=6.312D-02 Max rot=    0.3653 deg.
 Gradient too large for Newton-Raphson -- use scaled steepest descent instead.
 Alpha Gap=     1.806 HL deriv= 8.09D-04
     ILin= 1 X=0.000D+00 Y=-3.428049324993D+02 DE= 0.00D+00 F= -3.27D-03
     ILin= 2 X=6.000D-01 Y=-3.428063639537D+02 DE=-1.43D-03 F= -1.50D-03
     ILin= 3 X=1.300D+00 Y=-3.428066855470D+02 DE=-1.75D-03 F=  5.78D-04
     Accept linear search using points  2 and  3.
     An  expanding polynomial of degree  3 produced  1.0411
 Iteration   3 EE= -342.806735863663     Delta-E=       -0.001803364334 Grad=3.945D-02 Max rot=    0.1870 deg.
 Gradient too large for Newton-Raphson -- use scaled steepest descent instead.
 Alpha Gap=     1.806 HL deriv= 1.40D-03
     ILin= 1 X=0.000D+00 Y=-3.428067358637D+02 DE= 0.00D+00 F= -1.35D-03
     ILin= 2 X=1.200D+00 Y=-3.428073229317D+02 DE=-5.87D-04 F=  3.69D-04
     Accept linear search using points  1 and  2.
     An  expanding polynomial of degree  2 produced  1.0009
 Iteration   4 EE= -342.807368092049     Delta-E=       -0.000632228385 Grad=3.076D-02 Max rot=    0.1537 deg.
 Gradient too large for Newton-Raphson -- use scaled steepest descent instead.
 Alpha Gap=     1.806 HL deriv= 4.12D-04
     ILin= 1 X=0.000D+00 Y=-3.428073680920D+02 DE= 0.00D+00 F= -7.77D-04
     ILin= 2 X=1.000D+00 Y=-3.428076468973D+02 DE=-2.79D-04 F=  2.20D-04
     Accept linear search using points  1 and  2.
     An  expanding polynomial of degree  2 produced  0.7797
 Iteration   5 EE= -342.807671081912     Delta-E=       -0.000302989863 Grad=1.867D-02 Max rot=    0.0867 deg.
 Gradient too large for Newton-Raphson -- use scaled steepest descent instead.
 Alpha Gap=     1.806 HL deriv= 7.81D-04
     ILin= 1 X=0.000D+00 Y=-3.428076710819D+02 DE= 0.00D+00 F= -3.08D-04
     ILin= 2 X=9.000D-01 Y=-3.428078235982D+02 DE=-1.53D-04 F= -3.11D-05
     Reject lnstep minimum 1.068D+00 FVal=-3.428078264199D+02 Lims=  0.00D+00  9.00D-01
     ILin= 3 X=1.800D+00 Y=-3.428077270616D+02 DE=-5.60D-05 F=  2.46D-04
     An  expanding polynomial of degree  3 produced  1.0011
 Iteration   6 EE= -342.807825171102     Delta-E=       -0.000154089191 Grad=1.644D-02 Max rot=    0.0872 deg.
 Gradient too large for Newton-Raphson -- use scaled steepest descent instead.
 Alpha Gap=     1.806 HL deriv= 4.44D-04
     ILin= 1 X=0.000D+00 Y=-3.428078251711D+02 DE= 0.00D+00 F= -2.25D-04
     ILin= 2 X=9.000D-01 Y=-3.428079077180D+02 DE=-8.25D-05 F=  4.16D-05
     Accept linear search using points  1 and  2.
     An  expanding polynomial of degree  2 produced  0.7319
 Iteration   7 EE= -342.807910528259     Delta-E=       -0.000085357156 Grad=1.027D-02 Max rot=    0.0578 deg.
 Gradient too large for Newton-Raphson -- use scaled steepest descent instead.
 Alpha Gap=     1.806 HL deriv= 4.67D-04
     ILin= 1 X=0.000D+00 Y=-3.428079105283D+02 DE= 0.00D+00 F= -9.37D-05
     ILin= 2 X=9.000D-01 Y=-3.428079596738D+02 DE=-4.91D-05 F= -1.55D-05
     Reject lnstep minimum 1.269D+00 FVal=-3.428079625965D+02 Lims=  0.00D+00  9.00D-01
     ILin= 3 X=1.700D+00 Y=-3.428079443260D+02 DE=-3.38D-05 F=  5.39D-05
     An  expanding polynomial of degree  3 produced  1.0790
 Iteration   8 EE= -342.807961064742     Delta-E=       -0.000050536484 Grad=1.004D-02 Max rot=    0.0565 deg.
 Gradient too large for Newton-Raphson -- use scaled steepest descent instead.
 Alpha Gap=     1.806 HL deriv= 3.73D-04
     ILin= 1 X=0.000D+00 Y=-3.428079610647D+02 DE= 0.00D+00 F= -8.51D-05
     ILin= 2 X=9.000D-01 Y=-3.428079882238D+02 DE=-2.72D-05 F=  2.47D-05
     Accept linear search using points  1 and  2.
     An  expanding polynomial of degree  2 produced  0.6693
 Iteration   9 EE= -342.807990685182     Delta-E=       -0.000029620440 Grad=5.889D-03 Max rot=    0.0395 deg.
 QCNR:  CnvC1=6.36D-09 CnvC2=6.36D-08
 LinEq1:  Iter=  0 NonCon=     1 RMS=9.36D-05 Max=1.63D-03 NDo=     1
 AX will form     1 AO Fock derivatives at one time.
 LinEq1:  Iter=  1 NonCon=     1 RMS=1.06D-05 Max=9.90D-05 NDo=     1
 LinEq1:  Iter=  2 NonCon=     1 RMS=3.54D-06 Max=2.11D-05 NDo=     1
 LinEq1:  Iter=  3 NonCon=     1 RMS=8.29D-07 Max=9.02D-06 NDo=     1
 LinEq1:  Iter=  4 NonCon=     1 RMS=2.51D-07 Max=2.13D-06 NDo=     1
 LinEq1:  Iter=  5 NonCon=     1 RMS=7.86D-08 Max=8.31D-07 NDo=     1
 LinEq1:  Iter=  6 NonCon=     1 RMS=1.46D-08 Max=1.44D-07 NDo=     1
 LinEq1:  Iter=  7 NonCon=     0 RMS=4.05D-09 Max=2.75D-08 NDo=     1
 Linear equations converged to 6.364D-09 6.364D-08 after     7 iterations.
 Angle between quadratic step and gradient=  33.08 degrees.
     ILin= 1 X=0.000D+00 Y=-3.428079906852D+02 DE= 0.00D+00 F= -9.74D-05
     ILin= 2 X=1.000D+00 Y=-3.428080394101D+02 DE=-4.87D-05 F= -2.67D-08
     Reject lnstep minimum 1.000D+00 FVal=-3.428080394101D+02 Lims=  0.00D+00  1.00D+00
     ILin= 3 X=2.000D+00 Y=-3.428079907556D+02 DE=-7.04D-08 F=  9.73D-05
     An  expanding polynomial of degree  3 produced  1.0004
     Minimum is close to point  2 DX=  3.61D-04 DF= -6.31D-12 DXR=  3.61D-04 DFR=  1.29D-07 which will be used.
 Iteration  10 EE= -342.808039410053     Delta-E=       -0.000048724871 Grad=1.513D-05 Max rot=    0.0001 deg.
 QCNR:  CnvC1=1.51D-10 CnvC2=1.51D-09
 LinEq1:  Iter=  0 NonCon=     1 RMS=1.56D-07 Max=1.01D-06 NDo=     1
 LinEq1:  Iter=  1 NonCon=     1 RMS=4.83D-08 Max=4.84D-07 NDo=     1
 LinEq1:  Iter=  2 NonCon=     1 RMS=1.31D-08 Max=1.11D-07 NDo=     1
 LinEq1:  Iter=  3 NonCon=     1 RMS=3.91D-09 Max=2.92D-08 NDo=     1
 LinEq1:  Iter=  4 NonCon=     1 RMS=8.79D-10 Max=6.66D-09 NDo=     1
 LinEq1:  Iter=  5 NonCon=     1 RMS=2.07D-10 Max=1.93D-09 NDo=     1
 LinEq1:  Iter=  6 NonCon=     0 RMS=6.17D-11 Max=4.76D-10 NDo=     1
 Linear equations converged to 1.513D-10 1.513D-09 after     6 iterations.
 Angle between quadratic step and gradient=  34.55 degrees.
     ILin= 1 X=0.000D+00 Y=-3.428080394101D+02 DE= 0.00D+00 F= -2.13D-10
     ILin= 2 X=1.000D+00 Y=-3.428080394102D+02 DE=-1.04D-10
 Iteration  11 EE= -342.808039410157     Delta-E=       -0.000000000104 Grad=6.735D-09 Max rot=    0.0000 deg.
 Rotation gradient small -- convergence achieved.
 SCF Done:  E(RHF) =  -342.808039410     a.u. after   11 cycles
            Convg  =    0.6735D-08                    38 Fock formations.
              S**2 =  0.0000                  -V/T =  2.0015
 Leave Link  508 at Wed Sep 20 14:36:43 2023, MaxMem=    33554432 cpu:         1.6
 (Enter /mnt/storage/apps/eb/software/gaussian/09/l701.exe)
 Compute integral first derivatives.
 ... and contract with generalized density number  0.
 Leave Link  701 at Wed Sep 20 14:36:43 2023, MaxMem=    33554432 cpu:         0.1
 (Enter /mnt/storage/apps/eb/software/gaussian/09/l702.exe)
 L702 exits ... SP integral derivatives will be done elsewhere.
 Leave Link  702 at Wed Sep 20 14:36:43 2023, MaxMem=    33554432 cpu:         0.0
 (Enter /mnt/storage/apps/eb/software/gaussian/09/l703.exe)
 Compute integral first derivatives, UseDBF=F ICtDFT=           0.
 Integral derivatives from FoFJK, PRISM(SPDF).
 Calling FoFJK, ICntrl=      2127 FMM=F ISym2X=0 I1Cent= 0 IOpClX= 0 NMat=1 NMatS=1 NMatT=0.
 FoFJK:  IHMeth= 1 ICntrl=    2127 DoSepK=F KAlg= 0 I1Cent=   0 FoldK=F
 IRaf=         0 NMat=   1 IRICut=       1 DoRegI=T DoRafI=F ISym2E= 0.
 FoFCou: FMM=F IPFlag=           0 FMFlag=      100000 FMFlg1=         800
         NFxFlg=           0 DoJE=F BraDBF=F KetDBF=F FulRan=T
         wScrn=  0.000000 ICntrl=    2127 IOpCl=  0 I1Cent=           0 NGrid=           0
         NMat0=    1 NMatS0=      1 NMatT0=    0 NMatD0=    1 NMtDS0=    0 NMtDT0=    0
 Symmetry not used in FoFCou.
 Leave Link  703 at Wed Sep 20 14:36:44 2023, MaxMem=    33554432 cpu:         1.4
 (Enter /mnt/storage/apps/eb/software/gaussian/09/l716.exe)
 Dipole        =-7.30851095D-01 2.23978747D-01-3.58679609D-02
 ***** Axes restored to original set *****
 -------------------------------------------------------------------
 Center     Atomic                   Forces (Hartrees/Bohr)
 Number     Number              X              Y              Z
 -------------------------------------------------------------------
      1        8           0.002567002    0.004541462   -0.002028975
      2        6          -0.011110985    0.000386380   -0.000663030
      3        6           0.004332257   -0.009245236    0.001172757
      4        8          -0.004548686    0.001259681    0.000720221
      5        6          -0.002446594    0.011101148   -0.007889787
      6        8           0.007914864   -0.007714981    0.000909964
      7        1           0.000681410   -0.000104881    0.001510325
      8        1           0.000402469   -0.001858915    0.000697217
      9        1          -0.000039303   -0.001398309    0.000334377
     10        1          -0.002865976    0.002070573    0.000965390
     11        1           0.003021034   -0.001839136    0.000234235
     12        1           0.000671885   -0.001712153    0.000011390
     13        1           0.003007448    0.000563763   -0.001726270
     14        1          -0.001586825    0.003950604    0.005752187
 -------------------------------------------------------------------
 Cartesian Forces:  Max     0.011110985 RMS     0.004082823
 Leave Link  716 at Wed Sep 20 14:36:44 2023, MaxMem=    33554432 cpu:         0.0
 (Enter /mnt/storage/apps/eb/software/gaussian/09/l103.exe)

 GradGradGradGradGradGradGradGradGradGradGradGradGradGradGradGradGradGrad
 Berny optimization.
 Using GEDIIS/GDIIS optimizer.
 FormGI is forming the generalized inverse of G from B-inverse, IUseBI=4.
 Internal  Forces:  Max     0.009687077 RMS     0.002819492
 Search for a local minimum.
 Step number   2 out of a maximum of  100
 All quantities printed in internal units (Hartrees-Bohrs-Radians)
 RMS Force = .28195D-02 SwitMx=.10000D-02 MixMth= 1
 Mixed Optimization -- RFO/linear search
 Update second derivatives using D2CorX and points    1    2
 DE= -1.34D-02 DEPred=-1.59D-02 R= 8.46D-01
 TightC=F SS=  1.41D+00  RLast= 4.20D-01 DXNew= 5.0454D-01 1.2587D+00
 Trust test= 8.46D-01 RLast= 4.20D-01 DXMaxT set to 5.05D-01
 ITU=  1  0
 Use linear search instead of GDIIS.
     Eigenvalues ---    0.00279   0.00572   0.01677   0.01911   0.01941
     Eigenvalues ---    0.04369   0.04817   0.05032   0.05365   0.05935
     Eigenvalues ---    0.06075   0.07516   0.11390   0.12230   0.13820
     Eigenvalues ---    0.14191   0.15989   0.16000   0.16250   0.16986
     Eigenvalues ---    0.19838   0.21739   0.23444   0.28374   0.30279
     Eigenvalues ---    0.31457   0.31925   0.32830   0.34001   0.34455
     Eigenvalues ---    0.45574   0.46987   0.48956   0.50503   0.51868
     Eigenvalues ---    0.53518
 RFO step:  Lambda=-4.20772250D-03 EMin= 2.79484363D-03
 Quartic linear search produced a step of  0.00106.
 Iteration  1 RMS(Cart)=  0.06922875 RMS(Int)=  0.00394124
 Iteration  2 RMS(Cart)=  0.00360309 RMS(Int)=  0.00016751
 Iteration  3 RMS(Cart)=  0.00000741 RMS(Int)=  0.00016745
 Iteration  4 RMS(Cart)=  0.00000000 RMS(Int)=  0.00016745
 ITry= 1 IFail=0 DXMaxC= 2.89D-01 DCOld= 1.00D+10 DXMaxT= 5.05D-01 DXLimC= 3.00D+00 Rises=F
 Variable       Old X    -DE/DX   Delta X   Delta X   Delta X     New X
                                 (Linear)    (Quad)   (Total)
    R1        2.64390   0.00499   0.00004   0.01220   0.01224   2.65614
    R2        1.78209   0.00159  -0.00007  -0.00129  -0.00136   1.78073
    R3        2.89653  -0.00659  -0.00001  -0.02274  -0.02275   2.87379
    R4        2.04487   0.00162  -0.00008  -0.00021  -0.00029   2.04458
    R5        2.05003   0.00058  -0.00004  -0.00089  -0.00093   2.04910
    R6        2.66056   0.00017   0.00002   0.00135   0.00137   2.66192
    R7        2.89581  -0.00969   0.00003  -0.02850  -0.02847   2.86734
    R8        2.05383   0.00022  -0.00002  -0.00032  -0.00033   2.05350
    R9        1.78702   0.00034  -0.00006  -0.00330  -0.00336   1.78366
   R10        2.62999   0.00683   0.00002   0.01503   0.01506   2.64505
   R11        2.04745   0.00082  -0.00006  -0.00135  -0.00141   2.04603
   R12        2.05854  -0.00164  -0.00006  -0.00869  -0.00875   2.04979
   R13        1.78492   0.00438  -0.00009   0.00295   0.00285   1.78777
    A1        1.92658  -0.00035  -0.00002  -0.00320  -0.00321   1.92337
    A2        1.91540  -0.00491  -0.00001  -0.02173  -0.02167   1.89373
    A3        1.94146   0.00124   0.00003   0.00448   0.00458   1.94605
    A4        1.89986   0.00154  -0.00005   0.00401   0.00403   1.90388
    A5        1.90448   0.00187   0.00007   0.01322   0.01327   1.91775
    A6        1.91116   0.00176   0.00003   0.01196   0.01197   1.92313
    A7        1.89116  -0.00142  -0.00007  -0.01158  -0.01174   1.87942
    A8        1.90317   0.00117  -0.00001   0.00414   0.00407   1.90724
    A9        1.98782  -0.00219   0.00007  -0.00839  -0.00831   1.97952
   A10        1.86594   0.00147  -0.00004   0.01447   0.01441   1.88035
   A11        1.87801  -0.00007   0.00002  -0.00474  -0.00472   1.87329
   A12        1.93620  -0.00042  -0.00002   0.00011   0.00001   1.93622
   A13        1.89342   0.00001  -0.00003  -0.00556  -0.00556   1.88786
   A14        1.91848  -0.00104   0.00002  -0.00507  -0.00506   1.91343
   A15        2.00551  -0.00961   0.00006  -0.04158  -0.04179   1.96372
   A16        1.91163   0.00088  -0.00003  -0.00880  -0.00935   1.90227
   A17        1.88605   0.00135   0.00004   0.01068   0.01104   1.89708
   A18        1.88378   0.00313  -0.00009  -0.00247  -0.00342   1.88036
   A19        1.90154   0.00476   0.00002   0.03276   0.03295   1.93449
   A20        1.87099   0.00005  -0.00001   0.01312   0.01307   1.88405
   A21        1.89611   0.00231  -0.00009   0.00811   0.00802   1.90412
    D1        2.07716  -0.00033   0.00003  -0.00934  -0.00930   2.06786
    D2       -0.03211  -0.00020  -0.00006  -0.01434  -0.01441  -0.04652
    D3       -2.11468  -0.00018   0.00004  -0.00533  -0.00528  -2.11996
    D4       -1.05893  -0.00051  -0.00001  -0.01802  -0.01806  -1.07699
    D5        3.12660   0.00018  -0.00008  -0.00941  -0.00950   3.11710
    D6        1.03552   0.00048  -0.00006  -0.00730  -0.00732   1.02820
    D7        1.07254  -0.00090   0.00006  -0.01779  -0.01780   1.05473
    D8       -1.02512  -0.00021  -0.00001  -0.00917  -0.00924  -1.03436
    D9       -3.11620   0.00009   0.00001  -0.00706  -0.00706  -3.12326
   D10        3.13982  -0.00049   0.00003  -0.01701  -0.01696   3.12286
   D11        1.04217   0.00021  -0.00003  -0.00840  -0.00840   1.03377
   D12       -1.04892   0.00050  -0.00001  -0.00629  -0.00622  -1.05514
   D13        1.50586  -0.00053  -0.00011  -0.08428  -0.08439   1.42147
   D14       -2.61329  -0.00253  -0.00001  -0.09499  -0.09502  -2.70830
   D15       -0.54466  -0.00279  -0.00005  -0.10455  -0.10458  -0.64924
   D16        1.04244  -0.00017   0.00002   0.06756   0.06780   1.11024
   D17       -1.08093   0.00181   0.00011   0.10674   0.10666  -0.97428
   D18       -3.11366   0.00052   0.00011   0.08991   0.09002  -3.02365
   D19       -1.06932  -0.00021  -0.00002   0.07102   0.07120  -0.99812
   D20        3.09050   0.00178   0.00007   0.11020   0.11005  -3.08263
   D21        1.05777   0.00048   0.00007   0.09336   0.09342   1.15118
   D22        3.11793   0.00033   0.00000   0.07670   0.07692  -3.08833
   D23        0.99457   0.00231   0.00009   0.11588   0.11577   1.11034
   D24       -1.03817   0.00102   0.00009   0.09905   0.09914  -0.93903
   D25        0.48407   0.00369   0.00014   0.15157   0.15138   0.63545
   D26        2.62250   0.00067   0.00008   0.11004   0.11017   2.73267
   D27       -1.63460   0.00494   0.00003   0.14152   0.14182  -1.49278
         Item               Value     Threshold  Converged?
 Maximum Force            0.009687     0.000015     NO 
 RMS     Force            0.002819     0.000010     NO 
 Maximum Displacement     0.289015     0.000060     NO 
 RMS     Displacement     0.068887     0.000040     NO 
 Predicted change in Energy=-2.455381D-03
 Lowest energy point so far.  Saving SCF results.
 GradGradGradGradGradGradGradGradGradGradGradGradGradGradGradGradGradGrad

 Leave Link  103 at Wed Sep 20 14:36:44 2023, MaxMem=    33554432 cpu:         0.0
 (Enter /mnt/storage/apps/eb/software/gaussian/09/l202.exe)
                          Input orientation:                          
 ---------------------------------------------------------------------
 Center     Atomic      Atomic             Coordinates (Angstroms)
 Number     Number       Type             X           Y           Z
 ---------------------------------------------------------------------
      1          8           0        2.196816    0.126367   -0.550162
      2          6           0        0.981899   -0.563016   -0.394129
      3          6           0       -0.140061    0.456831   -0.276771
      4          8           0        0.074330    1.254853    0.864034
      5          6           0       -1.514058   -0.171590   -0.137089
      6          8           0       -1.644437   -0.919115    1.039078
      7          1           0        2.776223   -0.069015    0.166833
      8          1           0        0.995628   -1.197346    0.482249
      9          1           0        0.821254   -1.198304   -1.258065
     10          1           0       -0.134063    1.060980   -1.179990
     11          1           0        0.698112    1.934149    0.663175
     12          1           0       -1.682778   -0.839189   -0.972622
     13          1           0       -2.261412    0.613382   -0.180229
     14          1           0       -1.167452   -0.488989    1.733686
 ---------------------------------------------------------------------
                    Distance matrix (angstroms):
                    1          2          3          4          5
     1  O    0.000000
     2  C    1.405567   0.000000
     3  C    2.375909   1.520742   0.000000
     4  O    2.788974   2.389833   1.408630   0.000000
     5  C    3.745663   2.539505   1.517330   2.357957   0.000000
     6  O    4.286484   3.013060   2.426486   2.776857   1.399700
     7  H    0.942321   1.943788   2.996333   3.088517   4.302255
     8  H    2.064204   1.081943   2.145274   2.647230   2.781057
     9  H    2.036676   1.084336   2.150939   3.328540   2.786470
    10  H    2.589051   2.121394   1.086664   2.063747   2.123973
    11  H    2.643175   2.726584   1.941263   0.943871   3.157255
    12  H    4.020202   2.740699   2.131632   3.293288   1.082714
    13  H    4.499981   3.456694   2.129309   2.637738   1.084703
    14  H    4.112532   3.025357   2.447865   2.310693   1.928905
                    6          7          8          9         10
     6  O    0.000000
     7  H    4.585381   0.000000
     8  H    2.712456   2.131463   0.000000
     9  H    3.381486   2.669744   1.749028   0.000000
    10  H    3.335607   3.400086   3.023124   2.454199   0.000000
    11  H    3.710789   2.928748   3.150795   3.676763   2.202771
    12  H    2.013652   4.666285   3.069004   2.545706   2.460115
    13  H    2.053269   5.095476   3.784960   3.734537   2.392797
    14  H    0.946046   4.264267   2.597456   3.661783   3.458296
                   11         12         13         14
    11  H    0.000000
    12  H    4.004482   0.000000
    13  H    3.348812   1.752902   0.000000
    14  H    3.240049   2.777104   2.464760   0.000000
 Stoichiometry    C3H8O3
 Framework group  C1[X(C3H8O3)]
 Deg. of freedom    36
 Full point group                 C1      NOp   1
 RotChk:  IX=0 Diff= 1.16D-01
 Largest Abelian subgroup         C1      NOp   1
 Largest concise Abelian subgroup C1      NOp   1
                         Standard orientation:                         
 ---------------------------------------------------------------------
 Center     Atomic      Atomic             Coordinates (Angstroms)
 Number     Number       Type             X           Y           Z
 ---------------------------------------------------------------------
      1          8           0       -2.261400   -0.249466   -0.045818
      2          6           0       -0.960478   -0.781417   -0.061598
      3          6           0       -0.012243    0.244552    0.539147
      4          8           0       -0.030642    1.412146   -0.248650
      5          6           0        1.426749   -0.231765    0.607814
      6          8           0        1.975636   -0.463377   -0.658771
      7          1           0       -2.592890   -0.174291   -0.924699
      8          1           0       -0.645593   -1.029297   -1.066587
      9          1           0       -0.943582   -1.694236    0.523431
     10          1           0       -0.348591    0.453553    1.551089
     11          1           0       -0.779107    1.938773   -0.017662
     12          1           0        1.463710   -1.163149    1.158658
     13          1           0        2.010336    0.502334    1.152889
     14          1           0        1.642807    0.183664   -1.263392
 ---------------------------------------------------------------------
 Rotational constants (GHZ):      6.3586836      2.2718570      2.0034377
 Leave Link  202 at Wed Sep 20 14:36:44 2023, MaxMem=    33554432 cpu:         0.0
 (Enter /mnt/storage/apps/eb/software/gaussian/09/l301.exe)
 Standard basis: 6-31G(d) (6D, 7F)
 Ernie: Thresh=  0.10000D-02 Tol=  0.10000D-05 Strict=F.
 There are   106 symmetry adapted cartesian basis functions of A   symmetry.
 There are   106 symmetry adapted basis functions of A   symmetry.
   106 basis functions,   200 primitive gaussians,   106 cartesian basis functions
    25 alpha electrons       25 beta electrons
       nuclear repulsion energy       266.3031692051 Hartrees.
 IExCor=    0 DFT=F Ex=HF Corr=None ExCW=0 ScaHFX=  1.000000
 ScaDFX=  1.000000  1.000000  1.000000  1.000000 ScalE2=  1.000000  1.000000
 IRadAn=      0 IRanWt=     -1 IRanGd=            0 ICorTp=0 IEmpDi=  4
 NAtoms=   14 NActive=   14 NUniq=   14 SFac= 1.00D+00 NAtFMM=   60 NAOKFM=F Big=F
 Integral buffers will be    131072 words long.
 Raffenetti 1 integral format.
 Two-electron integral symmetry is turned on.
 Leave Link  301 at Wed Sep 20 14:36:44 2023, MaxMem=    33554432 cpu:         0.0
 (Enter /mnt/storage/apps/eb/software/gaussian/09/l302.exe)
 NPDir=0 NMtPBC=     1 NCelOv=     1 NCel=       1 NClECP=     1 NCelD=      1
         NCelK=      1 NCelE2=     1 NClLst=     1 CellRange=     0.0.
 One-electron integrals computed using PRISM.
 NBasis=   106 RedAO= T EigKep=  3.41D-03  NBF=   106
 NBsUse=   106 1.00D-06 EigRej= -1.00D+00 NBFU=   106
 Leave Link  302 at Wed Sep 20 14:36:44 2023, MaxMem=    33554432 cpu:         0.1
 (Enter /mnt/storage/apps/eb/software/gaussian/09/l303.exe)
 DipDrv:  MaxL=1.
 Leave Link  303 at Wed Sep 20 14:36:44 2023, MaxMem=    33554432 cpu:         0.0
 (Enter /mnt/storage/apps/eb/software/gaussian/09/l401.exe)
 Initial guess from the checkpoint file:  "/scratch/nca121/18446470/Gau-12878.chk"
 B after Tr=     0.000000    0.000000    0.000000
         Rot=    0.999300   -0.037065    0.001792    0.004834 Ang=  -4.29 deg.
 Guess basis will be translated and rotated to current coordinates.
 JPrj=2 DoOrth=T DoCkMO=T.
 Generating alternative initial guess.
 ExpMin= 1.61D-01 ExpMax= 5.48D+03 ExpMxC= 8.25D+02 IAcc=1 IRadAn=         1 AccDes= 0.00D+00
 Harris functional with IExCor=  205 and IRadAn=       1 diagonalized for initial guess.
 HarFok:  IExCor=  205 AccDes= 0.00D+00 IRadAn=         1 IDoV= 1 UseB2=F ITyADJ=14
 ICtDFT=  3500011 ScaDFX=  1.000000  1.000000  1.000000  1.000000
 FoFCou: FMM=F IPFlag=           0 FMFlag=      100000 FMFlg1=           0
         NFxFlg=           0 DoJE=T BraDBF=F KetDBF=T FulRan=T
         wScrn=  0.000000 ICntrl=     500 IOpCl=  0 I1Cent=   200000004 NGrid=           0
         NMat0=    1 NMatS0=      1 NMatT0=    0 NMatD0=    1 NMtDS0=    0 NMtDT0=    0
 Petite list used in FoFCou.
 Harris En= -343.199021895752    
 Leave Link  401 at Wed Sep 20 14:36:45 2023, MaxMem=    33554432 cpu:         0.3
 (Enter /mnt/storage/apps/eb/software/gaussian/09/l508.exe)
 Direct SCF.
 Tight linear equation convergence will be used.
 RHF wavefunction.
 Quadratic Convergence SCF Method.
 Line search only if initial step raises energy.
 Integral symmetry usage will be decided dynamically.
 ReadGW:  IGet=1 IStart=         402 Next=         402 LGW=           0.
 Keep R1 ints in memory in canonical form, NReq=17057295.
 FoFCou: FMM=F IPFlag=           0 FMFlag=           0 FMFlg1=           0
         NFxFlg=           0 DoJE=F BraDBF=F KetDBF=F FulRan=T
         wScrn=  0.000000 ICntrl=     600 IOpCl=  0 I1Cent=           0 NGrid=           0
         NMat0=    1 NMatS0=   5671 NMatT0=    0 NMatD0=    1 NMtDS0=    0 NMtDT0=    0
 Symmetry not used in FoFCou.
 Iteration   1 EE= -342.802878790738                                    Grad=1.027D-01 Max rot=    0.6744 deg.
 Gradient too large for Newton-Raphson -- use scaled steepest descent instead.
 Alpha Gap=     1.807 HL deriv= 4.61D-04
     ILin= 1 X=0.000D+00 Y=-3.428028787907D+02 DE= 0.00D+00 F= -8.93D-03
     ILin= 2 X=3.000D-01 Y=-3.428052731499D+02 DE=-2.39D-03 F= -7.03D-03
     ILin= 3 X=6.000D-01 Y=-3.428070967871D+02 DE=-4.22D-03 F= -5.13D-03
     ILin= 4 X=1.200D+00 Y=-3.428090307200D+02 DE=-6.15D-03 F= -1.32D-03
     ILin= 5 X=2.400D+00 Y=-3.428060388249D+02 DE=-3.16D-03 F=  6.31D-03
     An  expanding polynomial of degree  5 produced  1.4076
 Iteration   2 EE= -342.809167614198     Delta-E=       -0.006288823459 Grad=5.269D-02 Max rot=    0.4041 deg.
 Gradient too large for Newton-Raphson -- use scaled steepest descent instead.
 Alpha Gap=     1.807 HL deriv= 1.17D-03
     ILin= 1 X=0.000D+00 Y=-3.428091676142D+02 DE= 0.00D+00 F= -2.36D-03
     ILin= 2 X=6.000D-01 Y=-3.428101256621D+02 DE=-9.58D-04 F= -8.30D-04
     ILin= 3 X=1.300D+00 Y=-3.428100806180D+02 DE=-9.13D-04 F=  9.59D-04
     An  expanding polynomial of degree  3 produced  0.9248
 Iteration   3 EE= -342.810260449580     Delta-E=       -0.001092835382 Grad=2.827D-02 Max rot=    0.1891 deg.
 Gradient too large for Newton-Raphson -- use scaled steepest descent instead.
 Alpha Gap=     1.807 HL deriv= 2.79D-04
     ILin= 1 X=0.000D+00 Y=-3.428102604496D+02 DE= 0.00D+00 F= -7.19D-04
     ILin= 2 X=1.100D+00 Y=-3.428105831560D+02 DE=-3.23D-04 F=  1.32D-04
     Accept linear search using points  1 and  2.
     An  expanding polynomial of degree  2 produced  0.9559
 Iteration   4 EE= -342.810594143847     Delta-E=       -0.000333694267 Grad=2.281D-02 Max rot=    0.1987 deg.
 Gradient too large for Newton-Raphson -- use scaled steepest descent instead.
 Alpha Gap=     1.807 HL deriv= 9.25D-04
     ILin= 1 X=0.000D+00 Y=-3.428105941438D+02 DE= 0.00D+00 F= -4.49D-04
     ILin= 2 X=9.000D-01 Y=-3.428107649833D+02 DE=-1.71D-04 F=  6.89D-05
     Accept linear search using points  1 and  2.
     An  expanding polynomial of degree  2 produced  0.7539
 Iteration   5 EE= -342.810768908990     Delta-E=       -0.000174765143 Grad=1.461D-02 Max rot=    0.1207 deg.
 Gradient too large for Newton-Raphson -- use scaled steepest descent instead.
 Alpha Gap=     1.807 HL deriv= 2.83D-04
[...]
    -- Stationary point found.
                           ----------------------------
                           !   Optimized Parameters   !
                           ! (Angstroms and Degrees)  !
 --------------------------                            --------------------------
 ! Name  Definition              Value          Derivative Info.                !
 --------------------------------------------------------------------------------
 ! R1    R(1,2)                  1.4092         -DE/DX =    0.0                 !
 ! R2    R(1,7)                  0.9465         -DE/DX =    0.0                 !
 ! R3    R(2,3)                  1.5187         -DE/DX =    0.0                 !
 ! R4    R(2,8)                  1.084          -DE/DX =    0.0                 !
 ! R5    R(2,9)                  1.0871         -DE/DX =    0.0                 !
 ! R6    R(3,4)                  1.4048         -DE/DX =    0.0                 !
 ! R7    R(3,5)                  1.5194         -DE/DX =    0.0                 !
 ! R8    R(3,10)                 1.0888         -DE/DX =    0.0                 !
 ! R9    R(4,11)                 0.9493         -DE/DX =    0.0                 !
 ! R10   R(5,6)                  1.3984         -DE/DX =    0.0                 !
 ! R11   R(5,12)                 1.0832         -DE/DX =    0.0                 !
 ! R12   R(5,13)                 1.0868         -DE/DX =    0.0                 !
 ! R13   R(6,14)                 0.9492         -DE/DX =    0.0                 !
 ! A1    A(2,1,7)              110.1231         -DE/DX =    0.0                 !
 ! A2    A(1,2,3)              106.526          -DE/DX =    0.0                 !
 ! A3    A(1,2,8)              110.9592         -DE/DX =    0.0                 !
 ! A4    A(1,2,9)              110.8538         -DE/DX =    0.0                 !
 ! A5    A(3,2,8)              109.6571         -DE/DX =    0.0                 !
 ! A6    A(3,2,9)              110.1015         -DE/DX =    0.0                 !
 ! A7    A(8,2,9)              108.728          -DE/DX =    0.0                 !
 ! A8    A(2,3,4)              110.0047         -DE/DX =    0.0                 !
 ! A9    A(2,3,5)              112.858          -DE/DX =    0.0                 !
 ! A10   A(2,3,10)             108.4406         -DE/DX =    0.0                 !
 ! A11   A(4,3,5)              106.3778         -DE/DX =    0.0                 !
 ! A12   A(4,3,10)             110.0554         -DE/DX =    0.0                 !
 ! A13   A(5,3,10)             109.0825         -DE/DX =    0.0                 !
 ! A14   A(3,4,11)             108.107          -DE/DX =    0.0                 !
 ! A15   A(3,5,6)              111.7167         -DE/DX =    0.0                 !
 ! A16   A(3,5,12)             110.4574         -DE/DX =    0.0                 !
 ! A17   A(3,5,13)             108.6347         -DE/DX =    0.0                 !
 ! A18   A(6,5,12)             107.1184         -DE/DX =    0.0                 !
 ! A19   A(6,5,13)             110.8853         -DE/DX =    0.0                 !
 ! A20   A(12,5,13)            107.9626         -DE/DX =    0.0                 !
 ! A21   A(5,6,14)             107.479          -DE/DX =    0.0                 !
 ! D1    D(7,1,2,3)            169.8394         -DE/DX =    0.0                 !
 ! D2    D(7,1,2,8)             50.5384         -DE/DX =    0.0                 !
 ! D3    D(7,1,2,9)            -70.3818         -DE/DX =    0.0                 !
 ! D4    D(1,2,3,4)            -56.3008         -DE/DX =    0.0                 !
 ! D5    D(1,2,3,5)           -174.9287         -DE/DX =    0.0                 !
 ! D6    D(1,2,3,10)            64.1033         -DE/DX =    0.0                 !
 ! D7    D(8,2,3,4)             63.8442         -DE/DX =    0.0                 !
 ! D8    D(8,2,3,5)            -54.7837         -DE/DX =    0.0                 !
 ! D9    D(8,2,3,10)          -175.7516         -DE/DX =    0.0                 !
 ! D10   D(9,2,3,4)           -176.5657         -DE/DX =    0.0                 !
 ! D11   D(9,2,3,5)             64.8064         -DE/DX =    0.0                 !
 ! D12   D(9,2,3,10)           -56.1616         -DE/DX =    0.0                 !
 ! D13   D(2,3,4,11)            45.9307         -DE/DX =    0.0                 !
 ! D14   D(5,3,4,11)           168.4695         -DE/DX =    0.0                 !
 ! D15   D(10,3,4,11)          -73.4934         -DE/DX =    0.0                 !
 ! D16   D(2,3,5,6)             62.0646         -DE/DX =    0.0                 !
 ! D17   D(2,3,5,12)           -57.0617         -DE/DX =    0.0                 !
 ! D18   D(2,3,5,13)          -175.3013         -DE/DX =    0.0                 !
 ! D19   D(4,3,5,6)            -58.6555         -DE/DX =    0.0                 !
 ! D20   D(4,3,5,12)          -177.7818         -DE/DX =    0.0                 !
 ! D21   D(4,3,5,13)            63.9786         -DE/DX =    0.0                 !
 ! D22   D(10,3,5,6)          -177.3334         -DE/DX =    0.0                 !
 ! D23   D(10,3,5,12)           63.5402         -DE/DX =    0.0                 !
 ! D24   D(10,3,5,13)          -54.6994         -DE/DX =    0.0                 !
 ! D25   D(3,5,6,14)            54.4956         -DE/DX =    0.0                 !
 ! D26   D(12,5,6,14)          175.5814         -DE/DX =    0.0                 !
 ! D27   D(13,5,6,14)          -66.8438         -DE/DX =    0.0                 !
 --------------------------------------------------------------------------------
 Lowest energy point so far.  Saving SCF results.
 GradGradGradGradGradGradGradGradGradGradGradGradGradGradGradGradGradGrad

 Largest change from initial coordinates is atom   14       0.754 Angstoms.
 Leave Link  103 at Wed Sep 20 14:37:37 2023, MaxMem=    33554432 cpu:         0.0
 (Enter /mnt/storage/apps/eb/software/gaussian/09/l202.exe)
                          Input orientation:                          
 ---------------------------------------------------------------------
 Center     Atomic      Atomic             Coordinates (Angstroms)
 Number     Number       Type             X           Y           Z
 ---------------------------------------------------------------------
      1          8           0        2.168916    0.288882   -0.362087
      2          6           0        0.995630   -0.491336   -0.337499
      3          6           0       -0.169650    0.481895   -0.300849
      4          8           0       -0.040976    1.344383    0.800466
      5          6           0       -1.513025   -0.211322   -0.147488
      6          8           0       -1.596261   -0.917796    1.056402
      7          1           0        2.928050   -0.260356   -0.228545
      8          1           0        0.969524   -1.124716    0.541808
      9          1           0        0.930036   -1.119589   -1.222291
     10          1           0       -0.168635    1.055398   -1.226358
     11          1           0        0.855835    1.654366    0.829254
     12          1           0       -1.663879   -0.925821   -0.947547
     13          1           0       -2.299109    0.536305   -0.213145
     14          1           0       -1.396455   -0.310292    1.757878
 ---------------------------------------------------------------------
                    Distance matrix (angstroms):
                    1          2          3          4          5
     1  O    0.000000
     2  C    1.409236   0.000000
     3  C    2.347316   1.518683   0.000000
     4  O    2.710947   2.395701   1.404756   0.000000
     5  C    3.721954   2.531375   1.519450   2.342171   0.000000
     6  O    4.200565   2.973673   2.415882   2.757149   1.398351
     7  H    0.946457   1.949223   3.186206   3.528338   4.442085
     8  H    2.062480   1.083989   2.142191   2.680385   2.733581
     9  H    2.063629   1.087135   2.150143   3.332503   2.819343
    10  H    2.607423   2.130251   1.088795   2.051299   2.139141
    11  H    2.237861   2.446404   1.924432   0.949309   3.169592
    12  H    4.063075   2.762955   2.152348   3.292900   1.083217
    13  H    4.477348   3.453522   2.131959   2.603760   1.086824
    14  H    4.191077   3.185192   2.524077   2.343483   1.911493
                    6          7          8          9         10
     6  O    0.000000
     7  H    4.748969   0.000000
     8  H    2.625048   2.275167   0.000000
     9  H    3.408129   2.391207   1.764548   0.000000
    10  H    3.338054   3.509458   3.028979   2.436732   0.000000
    11  H    3.560953   3.013167   2.796220   3.450966   2.373571
    12  H    2.005106   4.695276   3.031921   2.615612   2.497742
    13  H    2.054302   5.287542   3.743382   3.766662   2.415570
    14  H    0.949237   4.759171   2.782079   3.866384   3.504043
                   11         12         13         14
    11  H    0.000000
    12  H    4.020366   0.000000
    13  H    3.505757   1.755185   0.000000
    14  H    3.129701   2.787421   2.327326   0.000000
 Stoichiometry    C3H8O3
 Framework group  C1[X(C3H8O3)]
 Deg. of freedom    36
 Full point group                 C1      NOp   1
 RotChk:  IX=0 Diff= 3.08D-15
 Largest Abelian subgroup         C1      NOp   1
 Largest concise Abelian subgroup C1      NOp   1
                         Standard orientation:                         
 ---------------------------------------------------------------------
 Center     Atomic      Atomic             Coordinates (Angstroms)
 Number     Number       Type             X           Y           Z
 ---------------------------------------------------------------------
      1          8           0       -2.220784   -0.153926   -0.105131
      2          6           0       -0.958727   -0.776644   -0.031792
      3          6           0       -0.007008    0.244954    0.565674
      4          8           0       -0.014587    1.418201   -0.206837
      5          6           0        1.433327   -0.237918    0.597267
      6          8           0        1.926246   -0.479901   -0.688758
      7          1           0       -2.817607   -0.686232   -0.611327
      8          1           0       -0.611364   -1.066155   -1.016960
      9          1           0       -0.999979   -1.661898    0.597878
     10          1           0       -0.331121    0.464735    1.581608
     11          1           0       -0.917864    1.642472   -0.393869
     12          1           0        1.508938   -1.167682    1.147886
     13          1           0        2.037673    0.505550    1.110305
     14          1           0        1.798773    0.311862   -1.196610
 ---------------------------------------------------------------------
 Rotational constants (GHZ):      6.4103687      2.3069093      2.0378785
 Leave Link  202 at Wed Sep 20 14:37:37 2023, MaxMem=    33554432 cpu:         0.0
 (Enter /mnt/storage/apps/eb/software/gaussian/09/l601.exe)
 Copying SCF densities to generalized density rwf, IOpCl= 0 IROHF=0.

 **********************************************************************

            Population analysis using the SCF density.

 **********************************************************************

 Orbital symmetries:
       Occupied  (A) (A) (A) (A) (A) (A) (A) (A) (A) (A) (A) (A)
                 (A) (A) (A) (A) (A) (A) (A) (A) (A) (A) (A) (A)
                 (A)
       Virtual   (A) (A) (A) (A) (A) (A) (A) (A) (A) (A) (A) (A)
                 (A) (A) (A) (A) (A) (A) (A) (A) (A) (A) (A) (A)
                 (A) (A) (A) (A) (A) (A) (A) (A) (A) (A) (A) (A)
                 (A) (A) (A) (A) (A) (A) (A) (A) (A) (A) (A) (A)
                 (A) (A) (A) (A) (A) (A) (A) (A) (A) (A) (A) (A)
                 (A) (A) (A) (A) (A) (A) (A) (A) (A) (A) (A) (A)
                 (A) (A) (A) (A) (A) (A) (A) (A) (A)
 The electronic state is 1-A.
 Alpha  occ. eigenvalues --  -20.57405 -20.55987 -20.55228 -11.27726 -11.27655
 Alpha  occ. eigenvalues --  -11.27008  -1.39328  -1.36891  -1.34865  -1.03261
 Alpha  occ. eigenvalues --   -0.92475  -0.81410  -0.73637  -0.69411  -0.68590
 Alpha  occ. eigenvalues --   -0.65423  -0.62511  -0.59247  -0.56962  -0.54309
 Alpha  occ. eigenvalues --   -0.51892  -0.49207  -0.45750  -0.44030  -0.43189
 Alpha virt. eigenvalues --    0.21263   0.24318   0.26541   0.28726   0.30386
 Alpha virt. eigenvalues --    0.31889   0.33668   0.35185   0.38269   0.39822
 Alpha virt. eigenvalues --    0.42754   0.44074   0.48508   0.77239   0.78284
 Alpha virt. eigenvalues --    0.78763   0.82308   0.83384   0.90389   0.91386
 Alpha virt. eigenvalues --    0.95324   0.98240   1.06743   1.08518   1.09782
 Alpha virt. eigenvalues --    1.11233   1.13875   1.15261   1.17372   1.19192
 Alpha virt. eigenvalues --    1.21665   1.23464   1.28572   1.29540   1.30540
 Alpha virt. eigenvalues --    1.33428   1.36876   1.42718   1.50729   1.55946
 Alpha virt. eigenvalues --    1.56373   1.58890   1.63963   1.72136   1.83398
 Alpha virt. eigenvalues --    1.86138   1.91055   1.93848   1.98028   2.00680
 Alpha virt. eigenvalues --    2.03919   2.08986   2.13576   2.21159   2.25468
 Alpha virt. eigenvalues --    2.32663   2.40391   2.40783   2.46689   2.47985
 Alpha virt. eigenvalues --    2.50669   2.59936   2.61117   2.72017   2.73977
 Alpha virt. eigenvalues --    2.75849   2.80668   2.89245   2.89733   2.95628
 Alpha virt. eigenvalues --    2.99866   3.10517   3.19850   3.25692   3.28302
 Alpha virt. eigenvalues --    4.16037   4.22579   4.24870   4.67437   4.78909
 Alpha virt. eigenvalues --    4.98301
          Condensed to atoms (all electrons):
               1          2          3          4          5          6
     1  O    8.414550   0.203873  -0.057473  -0.002413   0.002076   0.000015
     2  C    0.203873   4.854915   0.360822  -0.051023  -0.050574  -0.004839
     3  C   -0.057473   0.360822   4.862734   0.203606   0.358409  -0.048681
     4  O   -0.002413  -0.051023   0.203606   8.446244  -0.059751  -0.001432
     5  C    0.002076  -0.050574   0.358409  -0.059751   4.807187   0.217117
     6  O    0.000015  -0.004839  -0.048681  -0.001432   0.217117   8.386521
     7  H    0.265103  -0.022740   0.005810  -0.000019  -0.000157   0.000007
     8  H   -0.038056   0.392948  -0.035268  -0.000150  -0.005438   0.008661
     9  H   -0.038130   0.388651  -0.043166   0.003505  -0.000016   0.000269
    10  H    0.000669  -0.050721   0.395667  -0.039075  -0.045048   0.003136
    11  H    0.016399  -0.009769  -0.028342   0.264653   0.005737  -0.000092
    12  H   -0.000026  -0.004454  -0.044002   0.003014   0.402045  -0.037110
    13  H   -0.000049   0.005618  -0.046076  -0.001144   0.400182  -0.037376
    14  H   -0.000031   0.000270  -0.010981   0.013862  -0.029027   0.262952
               7          8          9         10         11         12
     1  O    0.265103  -0.038056  -0.038130   0.000669   0.016399  -0.000026
     2  C   -0.022740   0.392948   0.388651  -0.050721  -0.009769  -0.004454
     3  C    0.005810  -0.035268  -0.043166   0.395667  -0.028342  -0.044002
     4  O   -0.000019  -0.000150   0.003505  -0.039075   0.264653   0.003014
     5  C   -0.000157  -0.005438  -0.000016  -0.045048   0.005737   0.402045
     6  O    0.000007   0.008661   0.000269   0.003136  -0.000092  -0.037110
     7  H    0.309223  -0.004144  -0.001855  -0.000239  -0.000603  -0.000003
     8  H   -0.004144   0.540414  -0.037981   0.005286  -0.000156   0.000002
     9  H   -0.001855  -0.037981   0.579929  -0.001145   0.000576   0.001734
    10  H   -0.000239   0.005286  -0.001145   0.572348  -0.000972   0.001768
    11  H   -0.000603  -0.000156   0.000576  -0.000972   0.285838  -0.000152
    12  H   -0.000003   0.000002   0.001734   0.001768  -0.000152   0.540260
    13  H    0.000004   0.000155  -0.000204  -0.001689  -0.000303  -0.033903
    14  H    0.000000   0.000449   0.000000   0.000434  -0.000418   0.005572
              13         14
     1  O   -0.000049  -0.000031
     2  C    0.005618   0.000270
     3  C   -0.046076  -0.010981
     4  O   -0.001144   0.013862
     5  C    0.400182  -0.029027
     6  O   -0.037376   0.262952
     7  H    0.000004   0.000000
     8  H    0.000155   0.000449
     9  H   -0.000204   0.000000
    10  H   -0.001689   0.000434
    11  H   -0.000303  -0.000418
    12  H   -0.033903   0.005572
    13  H    0.553518  -0.002430
    14  H   -0.002430   0.301891
 Mulliken charges:
               1
     1  O   -0.766509
     2  C   -0.012977
     3  C    0.126941
     4  O   -0.779880
     5  C   -0.002743
     6  O   -0.749148
     7  H    0.449613
     8  H    0.173278
     9  H    0.147834
    10  H    0.159581
    11  H    0.467604
    12  H    0.165254
    13  H    0.163695
    14  H    0.457456
 Sum of Mulliken charges =   0.00000
 Mulliken charges with hydrogens summed into heavy atoms:
               1
     1  O   -0.316896
     2  C    0.308135
     3  C    0.286522
     4  O   -0.312275
     5  C    0.326206
     6  O   -0.291691
 Electronic spatial extent (au):  <R**2>=            633.9079
 Charge=              0.0000 electrons
 Dipole moment (field-independent basis, Debye):
    X=             -2.0425    Y=             -0.8718    Z=              0.1107  Tot=              2.2236
 Quadrupole moment (field-independent basis, Debye-Ang):
   XX=            -36.9577   YY=            -36.7963   ZZ=            -34.1452
   XY=              4.3325   XZ=              4.7877   YZ=             -1.3792
 Traceless Quadrupole moment (field-independent basis, Debye-Ang):
   XX=             -0.9913   YY=             -0.8299   ZZ=              1.8212
   XY=              4.3325   XZ=              4.7877   YZ=             -1.3792
 Octapole moment (field-independent basis, Debye-Ang**2):
  XXX=            -21.9761  YYY=              0.3771  ZZZ=             -6.9432  XYY=             -9.6655
  XXY=              1.1192  XXZ=             -8.1798  XZZ=             -0.7411  YZZ=              2.3165
  YYZ=             -1.6421  XYZ=             -5.4243
 Hexadecapole moment (field-independent basis, Debye-Ang**3):
 XXXX=           -456.4547 YYYY=           -164.1842 ZZZZ=            -97.8331 XXXY=             40.8560
 XXXZ=             32.1886 YYYX=             -6.9585 YYYZ=             -4.7364 ZZZX=             -5.1947
 ZZZY=             -1.4999 XXYY=            -95.4097 XXZZ=            -87.8326 YYZZ=            -42.9141
 XXYZ=             -1.6759 YYXZ=              5.1130 ZZXY=              4.7088
 N-N= 2.672591303420D+02 E-N=-1.342761586840D+03  KE= 3.422780404589D+02
 No NMR shielding tensors so no spin-rotation constants.
 Leave Link  601 at Wed Sep 20 14:37:37 2023, MaxMem=    33554432 cpu:         0.1
 (Enter /mnt/storage/apps/eb/software/gaussian/09/l9999.exe)
 1\1\GINC-SB084\FOpt\RHF\6-31G(d)\C3H8O3\NCA121\20-Sep-2023\0\\#P hf/6-
 31G* scf(qc) opt(tight,maxcycle=100)\\Gaussian input prepared by ASE\\
 0,1\O,2.1689156569,0.2888819984,-0.3620870749\C,0.9956296701,-0.491336
 2305,-0.3374990893\C,-0.1696495658,0.4818947829,-0.3008487965\O,-0.040
 975877,1.3443833224,0.8004664692\C,-1.5130250475,-0.2113222283,-0.1474
 883838\O,-1.5962614796,-0.9177961091,1.0564023768\H,2.9280498726,-0.26
 03562657,-0.2285451868\H,0.969523689,-1.1247157375,0.5418077598\H,0.93
 00360688,-1.1195891527,-1.2222912545\H,-0.1686351619,1.0553979577,-1.2
 263579376\H,0.8558347983,1.654365608,0.8292540016\H,-1.6638786429,-0.9
 258205438,-0.9475474279\H,-2.2991093461,0.5363049677,-0.2131454213\H,-
 1.3964546349,-0.3102923696,1.7578779652\\Version=ES64L-G09RevD.01\Stat
 e=1-A\HF=-342.8166087\RMSD=0.000e+00\RMSF=5.728e-07\Dipole=0.7837088,-
 0.1675668,-0.3507572\Quadrupole=1.8429111,-2.4546232,0.6117122,-3.5868
 882,2.2828298,1.5814707\PG=C01 [X(C3H8O3)]\\@


 THE BEST WAY TO CONVINCE A FOOL THAT HE IS WRONG 
 IS TO LET HIM HAVE HIS OWN WAY.

                                         JOSH BILLINGS
 Job cpu time:       0 days  0 hours  0 minutes 59.5 seconds.
 File lengths (MBytes):  RWF=      6 Int=      0 D2E=      0 Chk=      2 Scr=      1
 Normal termination of Gaussian 09 at Wed Sep 20 14:37:37 2023.
