 Entering Gaussian System, Link 0=g09
 Initial command:
 /mnt/storage/apps/eb/software/gaussian/09/l1.exe "/scratch/nca121/18446470/Gau-11193.inp" -scrdir="/scratch/nca121/18446470/"
 Entering Link 1 = /mnt/storage/apps/eb/software/gaussian/09/l1.exe PID=     11194.
  
 Copyright (c) 1988,1990,1992,1993,1995,1998,2003,2009,2013,
            Gaussian, Inc.  All Rights Reserved.
  
 This is part of the Gaussian(R) 09 program.  It is based on
 the Gaussian(R) 03 system (copyright 2003, Gaussian, Inc.),
 the Gaussian(R) 98 system (copyright 1998, Gaussian, Inc.),
 the Gaussian(R) 94 system (copyright 1995, Gaussian, Inc.),
 the Gaussian 92(TM) system (copyright 1992, Gaussian, Inc.),
 the Gaussian 90(TM) system (copyright 1990, Gaussian, Inc.),
 the Gaussian 88(TM) system (copyright 1988, Gaussian, Inc.),
 the Gaussian 86(TM) system (copyright 1986, Carnegie Mellon
 University), and the Gaussian 82(TM) system (copyright 1983,
 Carnegie Mellon University). Gaussian is a federally registered
 trademark of Gaussian, Inc.
  
 This software contains proprietary and confidential information,
 including trade secrets, belonging to Gaussian, Inc.
  
 This software is provided under written license and may be
 used, copied, transmitted, or stored only in accord with that
 written license.
  
 The following legend is applicable only to US Government
 contracts under FAR:
  
                    RESTRICTED RIGHTS LEGEND
  
 Use, reproduction and disclosure by the US Government is
 subject to restrictions as set forth in subparagraphs (a)
 and (c) of the Commercial Computer Software - Restricted
 Rights clause in FAR 52.227-19.
  
 Gaussian, Inc.
 340 Quinnipiac St., Bldg. 40, Wallingford CT 06492
  
  
 ---------------------------------------------------------------
 Warning -- This program may not be used in any manner that
 competes with the business of Gaussian, Inc. or will provide
 assistance to any competitor of Gaussian, Inc.  The licensee
 of this program is prohibited from giving any competitor of
 Gaussian, Inc. access to this program.  By using this program,
 the user acknowledges that Gaussian, Inc. is engaged in the
 business of creating and licensing software in the field of
 computational chemistry and represents and warrants to the
 licensee that it is not a competitor of Gaussian, Inc. and that
 it will not use this program in any manner prohibited above.
 ---------------------------------------------------------------
  

 Cite this work as:
 Gaussian 09, Revision D.01,
 M. J. Frisch, G. W. Trucks, H. B. Schlegel, G. E. Scuseria, 
 M. A. Robb, J. R. Cheeseman, G. Scalmani, V. Barone, B. Mennucci, 
 G. A. Petersson, H. Nakatsuji, M. Caricato, X. Li, H. P. Hratchian, 
 A. F. Izmaylov, J. Bloino, G. Zheng, J. L. Sonnenberg, M. Hada, 
 M. Ehara, K. Toyota, R. Fukuda, J. Hasegawa, M. Ishida, T. Nakajima, 
 Y. Honda, O. Kitao, H. Nakai, T. Vreven, J. A. Montgomery, Jr., 
 J. E. Peralta, F. Ogliaro, M. Bearpark, J. J. Heyd, E. Brothers, 
 K. N. Kudin, V. N. Staroverov, T. Keith, R. Kobayashi, J. Normand, 
 K. Raghavachari, A. Rendell, J. C. Burant, S. S. Iyengar, J. Tomasi, 
 M. Cossi, N. Rega, J. M. Millam, M. Klene, J. E. Knox, J. B. Cross, 
 V. Bakken, C. Adamo, J. Jaramillo, R. Gomperts, R. E. Stratmann, 
 O. Yazyev, A. J. Austin, R. Cammi, C. Pomelli, J. W. Ochterski, 
 R. L. Martin, K. Morokuma, V. G. Zakrzewski, G. A. Voth, 
 P. Salvador, J. J. Dannenberg, S. Dapprich, A. D. Daniels, 
 O. Farkas, J. B. Foresman, J. V. Ortiz, J. Cioslowski, 
 and D. J. Fox, Gaussian, Inc., Wallingford CT, 2013.
 
 ******************************************
 Gaussian 09:  ES64L-G09RevD.01 24-Apr-2013
                20-Sep-2023 
 ******************************************
 --------------------------------------------
 #P hf/6-31G* scf(qc) opt(tight,maxcycle=100)
 --------------------------------------------
 1/6=100,7=10,18=20,19=15,38=1/1,3;
 2/9=110,12=2,17=6,18=5,40=1/2;
 3/5=1,6=6,7=1,11=9,16=1,25=1,30=1,71=1/1,2,3;
 4//1;
 5/5=2,8=3,38=5/8;
 6/7=2,8=2,9=2,10=2,28=1/1;
 7//1,2,3,16;
 1/6=100,7=10,18=20,19=15/3(2);
 2/9=110/2;
 99//99;
 2/9=110/2;
 3/5=1,6=6,7=1,11=9,16=1,25=1,30=1,71=1/1,2,3;
 4/5=5,16=3,69=1/1;
 5/5=2,8=3,38=5/8;
 7//1,2,3,16;
 1/6=100,7=10,18=20,19=15/3(-5);
 2/9=110/2;
 6/7=2,8=2,9=2,10=2,19=2,28=1/1;
 99/9=1/99;
 Leave Link    1 at Wed Sep 20 14:34:42 2023, MaxMem=           0 cpu:         0.0
 (Enter /mnt/storage/apps/eb/software/gaussian/09/l101.exe)
 ------------------------------
 Gaussian input prepared by ASE
 ------------------------------
 Symbolic Z-matrix:
 Charge =  0 Multiplicity = 1
 O                    -1.56715  -0.24743   0.94619 
 C                    -1.26325  -0.14079  -0.40468 
 C                     0.23242  -0.17592  -0.61115 
 O                     0.72647  -1.37825  -0.12299 
 C                     0.94782   0.94885   0.0908 
 O                     2.30899   0.80272  -0.19718 
 H                    -2.5604   -0.2637    1.03579 
 H                    -1.68254   0.81051  -0.80542 
 H                    -1.68133  -0.99974  -0.97053 
 H                     0.50627  -0.11824  -1.68148 
 H                    -0.02452  -1.99408   0.1437 
 H                     0.85498   0.89237   1.19758 
 H                     0.65808   1.94684  -0.30367 
 H                     2.54416  -0.08313  -0.52605 
 
 NAtoms=     14 NQM=       14 NQMF=       0 NMMI=      0 NMMIF=      0
                NMic=       0 NMicF=      0.
                    Isotopes and Nuclear Properties:
 (Nuclear quadrupole moments (NQMom) in fm**2, nuclear magnetic moments (NMagM)
  in nuclear magnetons)

  Atom         1           2           3           4           5           6           7           8           9          10
 IAtWgt=          16          12          12          16          12          16           1           1           1           1
 AtmWgt=  15.9949146  12.0000000  12.0000000  15.9949146  12.0000000  15.9949146   1.0078250   1.0078250   1.0078250   1.0078250
 NucSpn=           0           0           0           0           0           0           1           1           1           1
 AtZEff=   0.0000000   0.0000000   0.0000000   0.0000000   0.0000000   0.0000000   0.0000000   0.0000000   0.0000000   0.0000000
 NQMom=    0.0000000   0.0000000   0.0000000   0.0000000   0.0000000   0.0000000   0.0000000   0.0000000   0.0000000   0.0000000
 NMagM=    0.0000000   0.0000000   0.0000000   0.0000000   0.0000000   0.0000000   2.7928460   2.7928460   2.7928460   2.7928460
 AtZNuc=   8.0000000   6.0000000   6.0000000   8.0000000   6.0000000   8.0000000   1.0000000   1.0000000   1.0000000   1.0000000

  Atom        11          12          13          14
 IAtWgt=           1           1           1           1
 AtmWgt=   1.0078250   1.0078250   1.0078250   1.0078250
 NucSpn=           1           1           1           1
 AtZEff=   0.0000000   0.0000000   0.0000000   0.0000000
 NQMom=    0.0000000   0.0000000   0.0000000   0.0000000
 NMagM=    2.7928460   2.7928460   2.7928460   2.7928460
 AtZNuc=   1.0000000   1.0000000   1.0000000   1.0000000
 Leave Link  101 at Wed Sep 20 14:34:42 2023, MaxMem=    33554432 cpu:         0.0
 (Enter /mnt/storage/apps/eb/software/gaussian/09/l103.exe)

 GradGradGradGradGradGradGradGradGradGradGradGradGradGradGradGradGradGrad
 Berny optimization.
 Initialization pass.
                           ----------------------------
                           !    Initial Parameters    !
                           ! (Angstroms and Degrees)  !
 --------------------------                            --------------------------
 ! Name  Definition              Value          Derivative Info.                !
 --------------------------------------------------------------------------------
 ! R1    R(1,2)                  1.3887         estimate D2E/DX2                !
 ! R2    R(1,7)                  0.9974         estimate D2E/DX2                !
 ! R3    R(2,3)                  1.5103         estimate D2E/DX2                !
 ! R4    R(2,8)                  1.1142         estimate D2E/DX2                !
 ! R5    R(2,9)                  1.1103         estimate D2E/DX2                !
 ! R6    R(3,4)                  1.3885         estimate D2E/DX2                !
 ! R7    R(3,5)                  1.5065         estimate D2E/DX2                !
 ! R8    R(3,10)                 1.1063         estimate D2E/DX2                !
 ! R9    R(4,11)                 1.0071         estimate D2E/DX2                !
 ! R10   R(5,6)                  1.399          estimate D2E/DX2                !
 ! R11   R(5,12)                 1.1121         estimate D2E/DX2                !
 ! R12   R(5,13)                 1.1116         estimate D2E/DX2                !
 ! R13   R(6,14)                 0.9738         estimate D2E/DX2                !
 ! A1    A(2,1,7)              107.8516         estimate D2E/DX2                !
 ! A2    A(1,2,3)              110.3601         estimate D2E/DX2                !
 ! A3    A(1,2,8)              109.4563         estimate D2E/DX2                !
 ! A4    A(1,2,9)              110.7278         estimate D2E/DX2                !
 ! A5    A(3,2,8)              110.0826         estimate D2E/DX2                !
 ! A6    A(3,2,9)              106.5734         estimate D2E/DX2                !
 ! A7    A(8,2,9)              109.6043         estimate D2E/DX2                !
 ! A8    A(2,3,4)              108.9324         estimate D2E/DX2                !
 ! A9    A(2,3,5)              112.9057         estimate D2E/DX2                !
 ! A10   A(2,3,10)             112.0984         estimate D2E/DX2                !
 ! A11   A(4,3,5)              108.2826         estimate D2E/DX2                !
 ! A12   A(4,3,10)             107.2897         estimate D2E/DX2                !
 ! A13   A(5,3,10)             107.1164         estimate D2E/DX2                !
 ! A14   A(3,4,11)             110.9314         estimate D2E/DX2                !
 ! A15   A(3,5,6)              106.7469         estimate D2E/DX2                !
 ! A16   A(3,5,12)             112.7155         estimate D2E/DX2                !
 ! A17   A(3,5,13)             112.4072         estimate D2E/DX2                !
 ! A18   A(6,5,12)             106.3075         estimate D2E/DX2                !
 ! A19   A(6,5,13)             105.923          estimate D2E/DX2                !
 ! A20   A(12,5,13)            112.149          estimate D2E/DX2                !
 ! A21   A(5,6,14)             113.5488         estimate D2E/DX2                !
 ! D1    D(7,1,2,3)           -177.3719         estimate D2E/DX2                !
 ! D2    D(7,1,2,8)             61.3271         estimate D2E/DX2                !
 ! D3    D(7,1,2,9)            -59.6137         estimate D2E/DX2                !
 ! D4    D(1,2,3,4)             59.9929         estimate D2E/DX2                !
 ! D5    D(1,2,3,5)            -60.3362         estimate D2E/DX2                !
 ! D6    D(1,2,3,10)           178.5727         estimate D2E/DX2                !
 ! D7    D(8,2,3,4)           -179.079          estimate D2E/DX2                !
 ! D8    D(8,2,3,5)             60.5918         estimate D2E/DX2                !
 ! D9    D(8,2,3,10)           -60.4992         estimate D2E/DX2                !
 ! D10   D(9,2,3,4)            -60.2933         estimate D2E/DX2                !
 ! D11   D(9,2,3,5)            179.3775         estimate D2E/DX2                !
 ! D12   D(9,2,3,10)            58.2865         estimate D2E/DX2                !
 ! D13   D(2,3,4,11)             7.2913         estimate D2E/DX2                !
 ! D14   D(5,3,4,11)           130.4304         estimate D2E/DX2                !
 ! D15   D(10,3,4,11)         -114.2628         estimate D2E/DX2                !
 ! D16   D(2,3,5,6)           -179.3027         estimate D2E/DX2                !
 ! D17   D(2,3,5,12)            64.3472         estimate D2E/DX2                !
 ! D18   D(2,3,5,13)           -63.5834         estimate D2E/DX2                !
 ! D19   D(4,3,5,6)             59.9969         estimate D2E/DX2                !
 ! D20   D(4,3,5,12)           -56.3532         estimate D2E/DX2                !
 ! D21   D(4,3,5,13)           175.7163         estimate D2E/DX2                !
 ! D22   D(10,3,5,6)           -55.4231         estimate D2E/DX2                !
 ! D23   D(10,3,5,12)         -171.7732         estimate D2E/DX2                !
 ! D24   D(10,3,5,13)           60.2962         estimate D2E/DX2                !
 ! D25   D(3,5,6,14)           -17.5456         estimate D2E/DX2                !
 ! D26   D(12,5,6,14)          102.9983         estimate D2E/DX2                !
 ! D27   D(13,5,6,14)         -137.5323         estimate D2E/DX2                !
 --------------------------------------------------------------------------------
 Trust Radius=3.00D-01 FncErr=1.00D-07 GrdErr=1.00D-07
 Number of steps in this run=    100 maximum allowed number of steps=    100.
 GradGradGradGradGradGradGradGradGradGradGradGradGradGradGradGradGradGrad

 Leave Link  103 at Wed Sep 20 14:34:42 2023, MaxMem=    33554432 cpu:         0.0
 (Enter /mnt/storage/apps/eb/software/gaussian/09/l202.exe)
                          Input orientation:                          
 ---------------------------------------------------------------------
 Center     Atomic      Atomic             Coordinates (Angstroms)
 Number     Number       Type             X           Y           Z
 ---------------------------------------------------------------------
      1          8           0       -1.567149   -0.247431    0.946188
      2          6           0       -1.263249   -0.140790   -0.404678
      3          6           0        0.232415   -0.175919   -0.611150
      4          8           0        0.726469   -1.378249   -0.122986
      5          6           0        0.947821    0.948845    0.090802
      6          8           0        2.308989    0.802722   -0.197183
      7          1           0       -2.560402   -0.263696    1.035786
      8          1           0       -1.682535    0.810505   -0.805421
      9          1           0       -1.681334   -0.999744   -0.970525
     10          1           0        0.506267   -0.118242   -1.681478
     11          1           0       -0.024515   -1.994081    0.143703
     12          1           0        0.854984    0.892372    1.197581
     13          1           0        0.658084    1.946841   -0.303668
     14          1           0        2.544155   -0.083134   -0.526051
 ---------------------------------------------------------------------
                    Distance matrix (angstroms):
                    1          2          3          4          5
     1  O    0.000000
     2  C    1.388728   0.000000
     3  C    2.380934   1.510257   0.000000
     4  O    2.771744   2.360007   1.388521   0.000000
     5  C    2.913389   2.514286   1.506531   2.347354   0.000000
     6  O    4.175472   3.700561   2.332652   2.695646   1.398952
     7  H    0.997419   1.942331   3.243444   3.659030   3.830258
     8  H    2.049555   1.114162   2.162824   3.325607   2.782288
     9  H    2.062232   1.110306   2.114302   2.580524   3.440330
    10  H    3.349682   2.182181   1.106311   2.016185   2.115330
    11  H    2.464648   2.295620   1.985328   1.007149   3.099847
    12  H    2.688694   2.849837   2.190969   2.629854   1.112101
    13  H    3.365803   2.839001   2.186744   3.330698   1.111553
    14  H    4.370046   3.809774   2.315166   2.267987   1.998442
                    6          7          8          9         10
     6  O    0.000000
     7  H    5.135020   0.000000
     8  H    4.037608   2.305342   0.000000
     9  H    4.446304   2.310803   1.817763   0.000000
    10  H    2.510202   4.099895   2.533950   2.463351   0.000000
    11  H    3.658354   3.196993   3.393460   2.230529   2.670541
    12  H    2.016813   3.609367   3.233840   3.835844   3.071144
    13  H    2.011426   4.127864   2.649814   3.820987   2.487162
    14  H    0.973755   5.341202   4.329151   4.346549   2.342911
                   11         12         13         14
    11  H    0.000000
    12  H    3.196215   0.000000
    13  H    4.024543   1.845108   0.000000
    14  H    3.270834   2.603040   2.779841   0.000000
 Stoichiometry    C3H8O3
 Framework group  C1[X(C3H8O3)]
 Deg. of freedom    36
 Full point group                 C1      NOp   1
 Largest Abelian subgroup         C1      NOp   1
 Largest concise Abelian subgroup C1      NOp   1
                         Standard orientation:                         
 ---------------------------------------------------------------------
 Center     Atomic      Atomic             Coordinates (Angstroms)
 Number     Number       Type             X           Y           Z
 ---------------------------------------------------------------------
      1          8           0       -1.882155   -0.438549   -0.637955
      2          6           0       -1.362629   -0.162313    0.619961
      3          6           0        0.085039    0.253870    0.510760
      4          8           0        0.168164    1.391982   -0.280304
      5          6           0        0.956917   -0.811602   -0.100988
      6          8           0        2.259453   -0.301816   -0.125169
      7          1           0       -2.846808   -0.666555   -0.527036
      8          1           0       -1.453294   -1.065850    1.265528
      9          1           0       -1.901729    0.686959    1.089948
     10          1           0        0.521173    0.505563    1.495829
     11          1           0       -0.749035    1.745777   -0.499222
     12          1           0        0.688239   -1.032150   -1.157367
     13          1           0        1.001066   -1.731738    0.521066
     14          1           0        2.300730    0.665331   -0.019718
 ---------------------------------------------------------------------
 Rotational constants (GHZ):      6.5220054      2.3319530      2.0367367
 Leave Link  202 at Wed Sep 20 14:34:42 2023, MaxMem=    33554432 cpu:         0.0
 (Enter /mnt/storage/apps/eb/software/gaussian/09/l301.exe)
 Standard basis: 6-31G(d) (6D, 7F)
 Ernie: Thresh=  0.10000D-02 Tol=  0.10000D-05 Strict=F.
 There are   106 symmetry adapted cartesian basis functions of A   symmetry.
 There are   106 symmetry adapted basis functions of A   symmetry.
   106 basis functions,   200 primitive gaussians,   106 cartesian basis functions
    25 alpha electrons       25 beta electrons
       nuclear repulsion energy       267.4039608115 Hartrees.
 IExCor=    0 DFT=F Ex=HF Corr=None ExCW=0 ScaHFX=  1.000000
 ScaDFX=  1.000000  1.000000  1.000000  1.000000 ScalE2=  1.000000  1.000000
 IRadAn=      0 IRanWt=     -1 IRanGd=            0 ICorTp=0 IEmpDi=  4
 NAtoms=   14 NActive=   14 NUniq=   14 SFac= 1.00D+00 NAtFMM=   60 NAOKFM=F Big=F
 Integral buffers will be    131072 words long.
 Raffenetti 1 integral format.
 Two-electron integral symmetry is turned on.
 Leave Link  301 at Wed Sep 20 14:34:42 2023, MaxMem=    33554432 cpu:         0.0
 (Enter /mnt/storage/apps/eb/software/gaussian/09/l302.exe)
 NPDir=0 NMtPBC=     1 NCelOv=     1 NCel=       1 NClECP=     1 NCelD=      1
         NCelK=      1 NCelE2=     1 NClLst=     1 CellRange=     0.0.
 One-electron integrals computed using PRISM.
 NBasis=   106 RedAO= T EigKep=  2.99D-03  NBF=   106
 NBsUse=   106 1.00D-06 EigRej= -1.00D+00 NBFU=   106
 Leave Link  302 at Wed Sep 20 14:34:42 2023, MaxMem=    33554432 cpu:         0.1
 (Enter /mnt/storage/apps/eb/software/gaussian/09/l303.exe)
 DipDrv:  MaxL=1.
 Leave Link  303 at Wed Sep 20 14:34:42 2023, MaxMem=    33554432 cpu:         0.0
 (Enter /mnt/storage/apps/eb/software/gaussian/09/l401.exe)
 ExpMin= 1.61D-01 ExpMax= 5.48D+03 ExpMxC= 8.25D+02 IAcc=1 IRadAn=         1 AccDes= 0.00D+00
 Harris functional with IExCor=  205 and IRadAn=       1 diagonalized for initial guess.
 HarFok:  IExCor=  205 AccDes= 0.00D+00 IRadAn=         1 IDoV= 1 UseB2=F ITyADJ=14
 ICtDFT=  3500011 ScaDFX=  1.000000  1.000000  1.000000  1.000000
 FoFCou: FMM=F IPFlag=           0 FMFlag=      100000 FMFlg1=           0
         NFxFlg=           0 DoJE=T BraDBF=F KetDBF=T FulRan=T
         wScrn=  0.000000 ICntrl=     500 IOpCl=  0 I1Cent=   200000004 NGrid=           0
         NMat0=    1 NMatS0=      1 NMatT0=    0 NMatD0=    1 NMtDS0=    0 NMtDT0=    0
 Petite list used in FoFCou.
 Harris En= -343.185916307399    
 JPrj=0 DoOrth=F DoCkMO=F.
 Leave Link  401 at Wed Sep 20 14:34:42 2023, MaxMem=    33554432 cpu:         0.3
 (Enter /mnt/storage/apps/eb/software/gaussian/09/l508.exe)
 Direct SCF.
 Tight linear equation convergence will be used.
 RHF wavefunction.
 Quadratic Convergence SCF Method.
 Line search only if initial step raises energy.
 Integral symmetry usage will be decided dynamically.
 ReadGW:  IGet=1 IStart=         402 Next=         402 LGW=           0.
 Keep R1 ints in memory in canonical form, NReq=17057263.
 FoFCou: FMM=F IPFlag=           0 FMFlag=           0 FMFlg1=           0
         NFxFlg=           0 DoJE=F BraDBF=F KetDBF=F FulRan=T
         wScrn=  0.000000 ICntrl=     600 IOpCl=  0 I1Cent=           0 NGrid=           0
         NMat0=    1 NMatS0=   5671 NMatT0=    0 NMatD0=    1 NMtDS0=    0 NMtDT0=    0
 Symmetry not used in FoFCou.
 Iteration   1 EE= -342.540152228120                                    Grad=9.356D-01 Max rot=    7.9154 deg.
 Gradient too large for Newton-Raphson -- use scaled steepest descent instead.
 Alpha Gap=     0.585 HL deriv= 4.86D-03
     ILin= 1 X=0.000D+00 Y=-3.425401522281D+02 DE= 0.00D+00 F= -6.92D-01
     ILin= 2 X=3.000D-01 Y=-3.427023534769D+02 DE=-1.62D-01 F= -3.88D-01
     ILin= 3 X=5.000D-01 Y=-3.427595375214D+02 DE=-2.19D-01 F= -1.83D-01
     ILin= 4 X=9.000D-01 Y=-3.427504578895D+02 DE=-2.10D-01 F=  2.29D-01
     An  expanding polynomial of degree  4 produced  0.6782
 Iteration   2 EE= -342.775865719118     Delta-E=       -0.235713490998 Grad=3.000D-01 Max rot=    3.4517 deg.
 Gradient too large for Newton-Raphson -- use scaled steepest descent instead.
 Alpha Gap=     0.659 HL deriv= 3.42D-03
     ILin= 1 X=0.000D+00 Y=-3.427758657191D+02 DE= 0.00D+00 F= -2.85D-02
     ILin= 2 X=5.000D-01 Y=-3.427860464055D+02 DE=-1.02D-02 F= -1.23D-02
     ILin= 3 X=9.000D-01 Y=-3.427883609405D+02 DE=-1.25D-02 F=  6.68D-04
     Accept linear search using points  2 and  3.
     An  expanding polynomial of degree  3 produced  0.7318
 Iteration   3 EE= -342.788017340704     Delta-E=       -0.012151621586 Grad=9.139D-02 Max rot=    0.8884 deg.
 Gradient too large for Newton-Raphson -- use scaled steepest descent instead.
 Alpha Gap=     0.654 HL deriv= 2.16D-04
     ILin= 1 X=0.000D+00 Y=-3.427880173407D+02 DE= 0.00D+00 F= -3.43D-03
     ILin= 2 X=7.000D-01 Y=-3.427895772642D+02 DE=-1.56D-03 F= -1.03D-03
     Reject lnstep minimum 1.076D+00 FVal=-3.427899630227D+02 Lims=  0.00D+00  7.00D-01
     ILin= 3 X=1.400D+00 Y=-3.427894608739D+02 DE=-1.44D-03 F=  1.36D-03
     An  expanding polynomial of degree  3 produced  1.0014
 Iteration   4 EE= -342.789732636470     Delta-E=       -0.001715295766 Grad=2.163D-02 Max rot=    0.1328 deg.
 Gradient too large for Newton-Raphson -- use scaled steepest descent instead.
 Alpha Gap=     0.659 HL deriv= 6.25D-04
     ILin= 1 X=0.000D+00 Y=-3.427897326365D+02 DE= 0.00D+00 F= -5.56D-04
     ILin= 2 X=9.000D-01 Y=-3.427899011088D+02 DE=-1.68D-04 F=  1.81D-04
     Accept linear search using points  1 and  2.
     An  expanding polynomial of degree  2 produced  0.6515
 Iteration   5 EE= -342.789920866207     Delta-E=       -0.000188229737 Grad=6.716D-03 Max rot=    0.0460 deg.
 QCNR:  CnvC1=6.36D-09 CnvC2=6.36D-08
 LinEq1:  Iter=  0 NonCon=     1 RMS=7.63D-05 Max=9.92D-04 NDo=     1
 AX will form     1 AO Fock derivatives at one time.
 LinEq1:  Iter=  1 NonCon=     1 RMS=2.36D-05 Max=1.94D-04 NDo=     1
 LinEq1:  Iter=  2 NonCon=     1 RMS=4.62D-06 Max=4.71D-05 NDo=     1
 LinEq1:  Iter=  3 NonCon=     1 RMS=6.10D-07 Max=6.23D-06 NDo=     1
 LinEq1:  Iter=  4 NonCon=     1 RMS=1.91D-07 Max=1.53D-06 NDo=     1
 LinEq1:  Iter=  5 NonCon=     1 RMS=5.22D-08 Max=3.73D-07 NDo=     1
 LinEq1:  Iter=  6 NonCon=     1 RMS=1.56D-08 Max=9.85D-08 NDo=     1
 LinEq1:  Iter=  7 NonCon=     0 RMS=5.07D-09 Max=4.11D-08 NDo=     1
 Linear equations converged to 6.364D-09 6.364D-08 after     7 iterations.
 Angle between quadratic step and gradient=  34.27 degrees.
     ILin= 1 X=0.000D+00 Y=-3.427899208662D+02 DE= 0.00D+00 F= -7.63D-05
     ILin= 2 X=1.000D+00 Y=-3.427899589843D+02 DE=-3.81D-05 F=  2.21D-08
     Accept linear search using points  1 and  2.
     An  expanding polynomial of degree  2 produced  0.9997
     Minimum is close to point  2 DX= -2.90D-04 DF= -3.18D-12 DXR=  2.90D-04 DFR=  8.35D-08 which will be used.
 Iteration   6 EE= -342.789958984326     Delta-E=       -0.000038118119 Grad=4.956D-06 Max rot=    0.0000 deg.
 QCNR:  CnvC1=4.96D-11 CnvC2=4.96D-10
 LinEq1:  Iter=  0 NonCon=     1 RMS=6.91D-08 Max=8.01D-07 NDo=     1
 LinEq1:  Iter=  1 NonCon=     1 RMS=2.28D-08 Max=1.64D-07 NDo=     1
 LinEq1:  Iter=  2 NonCon=     1 RMS=3.60D-09 Max=4.01D-08 NDo=     1
 LinEq1:  Iter=  3 NonCon=     1 RMS=1.43D-09 Max=1.00D-08 NDo=     1
 LinEq1:  Iter=  4 NonCon=     1 RMS=3.50D-10 Max=3.32D-09 NDo=     1
 LinEq1:  Iter=  5 NonCon=     1 RMS=8.83D-11 Max=6.46D-10 NDo=     1
 LinEq1:  Iter=  6 NonCon=     0 RMS=2.26D-11 Max=1.36D-10 NDo=     1
 Linear equations converged to 4.956D-11 4.956D-10 after     6 iterations.
 Angle between quadratic step and gradient=  36.12 degrees.
     ILin= 1 X=0.000D+00 Y=-3.427899589843D+02 DE= 0.00D+00 F= -3.70D-11
     ILin= 2 X=1.000D+00 Y=-3.427899589843D+02 DE=-2.15D-11
 Iteration   7 EE= -342.789958984347     Delta-E=       -0.000000000021 Grad=2.843D-09 Max rot=    0.0000 deg.
 Rotation gradient small -- convergence achieved.
 SCF Done:  E(RHF) =  -342.789958984     a.u. after    7 cycles
            Convg  =    0.2843D-08                    28 Fock formations.
              S**2 =  0.0000                  -V/T =  2.0023
 Leave Link  508 at Wed Sep 20 14:34:44 2023, MaxMem=    33554432 cpu:         1.5
 (Enter /mnt/storage/apps/eb/software/gaussian/09/l601.exe)
 Copying SCF densities to generalized density rwf, IOpCl= 0 IROHF=0.

 **********************************************************************

            Population analysis using the SCF density.

 **********************************************************************

 Orbital symmetries:
       Occupied  (A) (A) (A) (A) (A) (A) (A) (A) (A) (A) (A) (A)
                 (A) (A) (A) (A) (A) (A) (A) (A) (A) (A) (A) (A)
                 (A)
       Virtual   (A) (A) (A) (A) (A) (A) (A) (A) (A) (A) (A) (A)
                 (A) (A) (A) (A) (A) (A) (A) (A) (A) (A) (A) (A)
                 (A) (A) (A) (A) (A) (A) (A) (A) (A) (A) (A) (A)
                 (A) (A) (A) (A) (A) (A) (A) (A) (A) (A) (A) (A)
                 (A) (A) (A) (A) (A) (A) (A) (A) (A) (A) (A) (A)
                 (A) (A) (A) (A) (A) (A) (A) (A) (A) (A) (A) (A)
                 (A) (A) (A) (A) (A) (A) (A) (A) (A)
 The electronic state is 1-A.
 Alpha  occ. eigenvalues --  -20.58568 -20.56704 -20.53403 -11.29451 -11.28216
 Alpha  occ. eigenvalues --  -11.26296  -1.39493  -1.36601  -1.33167  -1.02693
 Alpha  occ. eigenvalues --   -0.91440  -0.81924  -0.72746  -0.69106  -0.67651
 Alpha  occ. eigenvalues --   -0.64557  -0.62294  -0.58248  -0.57623  -0.55488
 Alpha  occ. eigenvalues --   -0.51669  -0.46710  -0.46000  -0.43617  -0.41530
 Alpha virt. eigenvalues --    0.18802   0.23496   0.25657   0.27356   0.28004
 Alpha virt. eigenvalues --    0.31174   0.32095   0.35376   0.37345   0.41917
 Alpha virt. eigenvalues --    0.42704   0.44153   0.48344   0.77187   0.79537
 Alpha virt. eigenvalues --    0.81460   0.82765   0.83565   0.91163   0.94651
 Alpha virt. eigenvalues --    0.96640   0.97115   1.05101   1.06142   1.08958
 Alpha virt. eigenvalues --    1.09911   1.10861   1.13542   1.15441   1.16848
 Alpha virt. eigenvalues --    1.18010   1.22311   1.25602   1.27845   1.29080
 Alpha virt. eigenvalues --    1.33577   1.34406   1.46125   1.47483   1.53559
 Alpha virt. eigenvalues --    1.57599   1.59997   1.65015   1.66333   1.82788
 Alpha virt. eigenvalues --    1.87642   1.91423   1.96409   1.99096   2.04407
 Alpha virt. eigenvalues --    2.05521   2.07529   2.17935   2.18625   2.25758
 Alpha virt. eigenvalues --    2.30963   2.38376   2.44793   2.47239   2.47722
 Alpha virt. eigenvalues --    2.50374   2.59885   2.64092   2.69402   2.73017
 Alpha virt. eigenvalues --    2.74534   2.80831   2.83391   2.89198   2.96804
 Alpha virt. eigenvalues --    3.01449   3.14445   3.18903   3.27660   3.29028
 Alpha virt. eigenvalues --    4.14903   4.19932   4.27133   4.67600   4.77596
 Alpha virt. eigenvalues --    4.99099
          Condensed to atoms (all electrons):
               1          2          3          4          5          6
     1  O    8.405807   0.194742  -0.062121   0.000771   0.000948  -0.000010
     2  C    0.194742   4.896198   0.348744  -0.038155  -0.053206   0.004128
     3  C   -0.062121   0.348744   4.854517   0.179917   0.371124  -0.035618
     4  O    0.000771  -0.038155   0.179917   8.465184  -0.062157  -0.003239
     5  C    0.000948  -0.053206   0.371124  -0.062157   4.772772   0.204760
     6  O   -0.000010   0.004128  -0.035618  -0.003239   0.204760   8.432650
     7  H    0.259355  -0.025074   0.006644  -0.000099  -0.000225   0.000001
     8  H   -0.040516   0.394631  -0.040709   0.003656  -0.004807  -0.000012
     9  H   -0.045137   0.396361  -0.048072  -0.002781   0.006319  -0.000090
    10  H    0.002293  -0.039067   0.411071  -0.047121  -0.058918   0.000673
    11  H    0.006560  -0.009248  -0.035347   0.263483   0.004587   0.000053
    12  H    0.002852  -0.002719  -0.029847  -0.000094   0.392952  -0.046240
    13  H    0.000288  -0.002024  -0.041813   0.003412   0.393901  -0.044228
    14  H   -0.000008   0.000758  -0.009603   0.008737  -0.030969   0.264312
               7          8          9         10         11         12
     1  O    0.259355  -0.040516  -0.045137   0.002293   0.006560   0.002852
     2  C   -0.025074   0.394631   0.396361  -0.039067  -0.009248  -0.002719
     3  C    0.006644  -0.040709  -0.048072   0.411071  -0.035347  -0.029847
     4  O   -0.000099   0.003656  -0.002781  -0.047121   0.263483  -0.000094
     5  C   -0.000225  -0.004807   0.006319  -0.058918   0.004587   0.392952
     6  O    0.000001  -0.000012  -0.000090   0.000673   0.000053  -0.046240
     7  H    0.320648  -0.003980  -0.004560  -0.000103  -0.000426  -0.000006
     8  H   -0.003980   0.570102  -0.035787   0.001509   0.000867   0.000334
     9  H   -0.004560  -0.035787   0.595549  -0.004261   0.001170  -0.000113
    10  H   -0.000103   0.001509  -0.004261   0.562053   0.002777   0.004670
    11  H   -0.000426   0.000867   0.001170   0.002777   0.306671  -0.000024
    12  H   -0.000006   0.000334  -0.000113   0.004670  -0.000024   0.532563
    13  H   -0.000028   0.001673  -0.000138  -0.000951  -0.000114  -0.032465
    14  H    0.000001  -0.000021  -0.000027   0.000879  -0.000273   0.002221
              13         14
     1  O    0.000288  -0.000008
     2  C   -0.002024   0.000758
     3  C   -0.041813  -0.009603
     4  O    0.003412   0.008737
     5  C    0.393901  -0.030969
     6  O   -0.044228   0.264312
     7  H   -0.000028   0.000001
     8  H    0.001673  -0.000021
     9  H   -0.000138  -0.000027
    10  H   -0.000951   0.000879
    11  H   -0.000114  -0.000273
    12  H   -0.032465   0.002221
    13  H    0.571900   0.004244
    14  H    0.004244   0.301732
 Mulliken charges:
               1
     1  O   -0.725823
     2  C   -0.066069
     3  C    0.131112
     4  O   -0.771514
     5  C    0.062921
     6  O   -0.777140
     7  H    0.447851
     8  H    0.153060
     9  H    0.141568
    10  H    0.164497
    11  H    0.459264
    12  H    0.175914
    13  H    0.146342
    14  H    0.458018
 Sum of Mulliken charges =   0.00000
 Mulliken charges with hydrogens summed into heavy atoms:
               1
     1  O   -0.277972
     2  C    0.228558
     3  C    0.295609
     4  O   -0.312250
     5  C    0.385178
     6  O   -0.319122
 Electronic spatial extent (au):  <R**2>=            632.4281
 Charge=              0.0000 electrons
 Dipole moment (field-independent basis, Debye):
    X=             -4.3630    Y=              0.4233    Z=              1.9921  Tot=              4.8149
 Quadrupole moment (field-independent basis, Debye-Ang):
   XX=            -34.3998   YY=            -35.3862   ZZ=            -37.5283
   XY=              2.1825   XZ=              0.2349   YZ=             -0.5234
 Traceless Quadrupole moment (field-independent basis, Debye-Ang):
   XX=              1.3716   YY=              0.3852   ZZ=             -1.7569
   XY=              2.1825   XZ=              0.2349   YZ=             -0.5234
 Octapole moment (field-independent basis, Debye-Ang**2):
  XXX=            -43.6214  YYY=              3.4075  ZZZ=             -2.9461  XYY=             -4.5304
  XXY=              7.7808  XXZ=             -0.2350  XZZ=              0.6573  YZZ=              1.3325
  YYZ=             -1.7559  XYZ=              1.5581
 Hexadecapole moment (field-independent basis, Debye-Ang**3):
 XXXX=           -425.0441 YYYY=           -161.9227 ZZZZ=           -100.3480 XXXY=             54.4151
 XXXZ=             19.3584 YYYX=             -6.8926 YYYZ=             -5.9347 ZZZX=              4.4629
 ZZZY=             -0.0391 XXYY=            -93.8953 XXZZ=            -99.9557 YYZZ=            -42.6616
 XXYZ=              1.1622 YYXZ=              4.2787 ZZXY=              0.3794
 N-N= 2.674039608115D+02 E-N=-1.342893238280D+03  KE= 3.420092918700D+02
 No NMR shielding tensors so no spin-rotation constants.
 Leave Link  601 at Wed Sep 20 14:34:44 2023, MaxMem=    33554432 cpu:         0.1
 (Enter /mnt/storage/apps/eb/software/gaussian/09/l701.exe)
 Compute integral first derivatives.
 ... and contract with generalized density number  0.
 Leave Link  701 at Wed Sep 20 14:34:44 2023, MaxMem=    33554432 cpu:         0.1
 (Enter /mnt/storage/apps/eb/software/gaussian/09/l702.exe)
 L702 exits ... SP integral derivatives will be done elsewhere.
 Leave Link  702 at Wed Sep 20 14:34:44 2023, MaxMem=    33554432 cpu:         0.0
 (Enter /mnt/storage/apps/eb/software/gaussian/09/l703.exe)
 Compute integral first derivatives, UseDBF=F ICtDFT=           0.
 Integral derivatives from FoFJK, PRISM(SPDF).
 Calling FoFJK, ICntrl=      2127 FMM=F ISym2X=0 I1Cent= 0 IOpClX= 0 NMat=1 NMatS=1 NMatT=0.
 FoFJK:  IHMeth= 1 ICntrl=    2127 DoSepK=F KAlg= 0 I1Cent=   0 FoldK=F
 IRaf=         0 NMat=   1 IRICut=       1 DoRegI=T DoRafI=F ISym2E= 0.
 FoFCou: FMM=F IPFlag=           0 FMFlag=      100000 FMFlg1=         800
         NFxFlg=           0 DoJE=F BraDBF=F KetDBF=F FulRan=T
         wScrn=  0.000000 ICntrl=    2127 IOpCl=  0 I1Cent=           0 NGrid=           0
         NMat0=    1 NMatS0=      1 NMatT0=    0 NMatD0=    1 NMtDS0=    0 NMtDT0=    0
 Symmetry not used in FoFCou.
 Leave Link  703 at Wed Sep 20 14:34:46 2023, MaxMem=    33554432 cpu:         1.6
 (Enter /mnt/storage/apps/eb/software/gaussian/09/l716.exe)
 Dipole        =-1.71652992D+00 1.66524846D-01 7.83744463D-01
 ***** Axes restored to original set *****
 -------------------------------------------------------------------
 Center     Atomic                   Forces (Hartrees/Bohr)
 Number     Number              X              Y              Z
 -------------------------------------------------------------------
      1        8          -0.048034362   -0.005530871    0.012010513
      2        6          -0.016329356    0.011555399   -0.030688808
      3        6          -0.014654922    0.006202346   -0.000553031
      4        8          -0.029181227   -0.051022831    0.018008554
      5        6           0.020238672    0.003364652    0.009489220
      6        8           0.027251116   -0.010832937   -0.014301247
      7        1           0.048973158    0.000932200   -0.001725923
      8        1           0.005962472   -0.016993930    0.000665954
      9        1          -0.000475584    0.013195997    0.004827499
     10        1          -0.011909150    0.002795751    0.009749545
     11        1           0.043893005    0.036382969   -0.012599494
     12        1          -0.010424395    0.003581693   -0.020891992
     13        1          -0.001836293   -0.017044403    0.010371418
     14        1          -0.013473134    0.023413964    0.015637792
 -------------------------------------------------------------------
 Cartesian Forces:  Max     0.051022831 RMS     0.020669998
 Leave Link  716 at Wed Sep 20 14:34:46 2023, MaxMem=    33554432 cpu:         0.0
 (Enter /mnt/storage/apps/eb/software/gaussian/09/l103.exe)

 GradGradGradGradGradGradGradGradGradGradGradGradGradGradGradGradGradGrad
 Berny optimization.
 FormGI is forming the generalized inverse of G from B-inverse, IUseBI=4.
 Internal  Forces:  Max     0.058312017 RMS     0.013241739
 Search for a local minimum.
 Step number   1 out of a maximum of  100
 All quantities printed in internal units (Hartrees-Bohrs-Radians)
 RMS Force = .13242D-01 SwitMx=.10000D-02 MixMth= 1
 Mixed Optimization -- RFO/linear search
 Second derivative matrix not updated -- first step.
 ITU=  0
     Eigenvalues ---    0.00630   0.00680   0.01706   0.01841   0.01844
     Eigenvalues ---    0.04403   0.05086   0.05358   0.05493   0.05765
     Eigenvalues ---    0.06249   0.07777   0.11372   0.11584   0.13561
     Eigenvalues ---    0.13831   0.16000   0.16000   0.16000   0.16858
     Eigenvalues ---    0.19706   0.22083   0.22108   0.31325   0.31702
     Eigenvalues ---    0.32163   0.32379   0.32436   0.32568   0.32994
     Eigenvalues ---    0.45795   0.46453   0.47541   0.47577   0.48145
     Eigenvalues ---    0.52617
 RFO step:  Lambda=-3.10008427D-02 EMin= 6.30269934D-03
 Linear search not attempted -- first point.
 Iteration  1 RMS(Cart)=  0.06663639 RMS(Int)=  0.00257261
 Iteration  2 RMS(Cart)=  0.00250652 RMS(Int)=  0.00131780
 Iteration  3 RMS(Cart)=  0.00000422 RMS(Int)=  0.00131779
 Iteration  4 RMS(Cart)=  0.00000000 RMS(Int)=  0.00131779
 ITry= 1 IFail=0 DXMaxC= 1.72D-01 DCOld= 1.00D+10 DXMaxT= 3.00D-01 DXLimC= 3.00D+00 Rises=F
 Variable       Old X    -DE/DX   Delta X   Delta X   Delta X     New X
                                 (Linear)    (Quad)   (Total)
    R1        2.62432   0.01015   0.00000   0.02005   0.02005   2.64436
    R2        1.88485  -0.04894   0.00000  -0.09550  -0.09550   1.78935
    R3        2.85397   0.00784   0.00000   0.02278   0.02278   2.87675
    R4        2.10546  -0.01699   0.00000  -0.04819  -0.04819   2.05727
    R5        2.09817  -0.01249   0.00000  -0.03502  -0.03502   2.06316
    R6        2.62392   0.01981   0.00000   0.03910   0.03910   2.66302
    R7        2.84693   0.01233   0.00000   0.03542   0.03542   2.88235
    R8        2.09062  -0.01223   0.00000  -0.03390  -0.03390   2.05673
    R9        1.90324  -0.05831   0.00000  -0.11768  -0.11768   1.78556
   R10        2.64364   0.01182   0.00000   0.02417   0.02417   2.66780
   R11        2.10157  -0.02010   0.00000  -0.05666  -0.05666   2.04490
   R12        2.10053  -0.01851   0.00000  -0.05207  -0.05207   2.04846
   R13        1.84013  -0.02984   0.00000  -0.05355  -0.05355   1.78658
    A1        1.88237   0.00502   0.00000   0.02628   0.02628   1.90865
    A2        1.92615  -0.01048   0.00000  -0.03747  -0.03725   1.88889
    A3        1.91037   0.00693   0.00000   0.03883   0.03885   1.94922
    A4        1.93256   0.00054   0.00000  -0.00248  -0.00212   1.93045
    A5        1.92130   0.00040   0.00000  -0.00216  -0.00194   1.91936
    A6        1.86006   0.00755   0.00000   0.03699   0.03709   1.89714
    A7        1.91296  -0.00505   0.00000  -0.03465  -0.03462   1.87834
    A8        1.90123   0.00896   0.00000   0.05948   0.05966   1.96089
    A9        1.97058   0.00377   0.00000   0.01968   0.01900   1.98958
   A10        1.95649  -0.00943   0.00000  -0.07470  -0.07440   1.88209
   A11        1.88989  -0.00753   0.00000  -0.01841  -0.01975   1.87013
   A12        1.87256   0.00153   0.00000   0.01370   0.01476   1.88732
   A13        1.86953   0.00242   0.00000   0.00030  -0.00001   1.86953
   A14        1.93612   0.00105   0.00000   0.00550   0.00550   1.94162
   A15        1.86308   0.02203   0.00000   0.10536   0.10527   1.96835
   A16        1.96726  -0.00797   0.00000  -0.04565  -0.05028   1.91698
   A17        1.96188  -0.00831   0.00000  -0.05540  -0.05852   1.90336
   A18        1.85542  -0.00061   0.00000   0.04259   0.04304   1.89845
   A19        1.84871  -0.00334   0.00000   0.01382   0.01558   1.86429
   A20        1.95737   0.00038   0.00000  -0.04100  -0.04612   1.91125
   A21        1.98180  -0.01376   0.00000  -0.07203  -0.07203   1.90977
    D1       -3.09572  -0.00181   0.00000  -0.01148  -0.01178  -3.10750
    D2        1.07036  -0.00011   0.00000  -0.01005  -0.00985   1.06051
    D3       -1.04045   0.00131   0.00000   0.00933   0.00943  -1.03103
    D4        1.04707  -0.00239   0.00000  -0.01502  -0.01432   1.03275
    D5       -1.05307  -0.00150   0.00000  -0.04551  -0.04595  -1.09902
    D6        3.11668  -0.00044   0.00000  -0.00511  -0.00582   3.11087
    D7       -3.12552  -0.00028   0.00000   0.00775   0.00864  -3.11688
    D8        1.05753   0.00061   0.00000  -0.02275  -0.02299   1.03453
    D9       -1.05591   0.00167   0.00000   0.01766   0.01714  -1.03877
   D10       -1.05232  -0.00171   0.00000  -0.01332  -0.01236  -1.06468
   D11        3.13073  -0.00082   0.00000  -0.04381  -0.04399   3.08674
   D12        1.01729   0.00024   0.00000  -0.00340  -0.00386   1.01343
   D13        0.12726  -0.00530   0.00000  -0.06718  -0.06670   0.06056
   D14        2.27644   0.00015   0.00000  -0.01780  -0.01770   2.25874
   D15       -1.99426  -0.00002   0.00000  -0.01965  -0.02023  -2.01449
   D16       -3.12942   0.00596   0.00000   0.04756   0.04762  -3.08180
   D17        1.12307  -0.00255   0.00000  -0.04421  -0.04230   1.08077
   D18       -1.10974   0.01077   0.00000   0.09820   0.09596  -1.01378
   D19        1.04714  -0.00253   0.00000  -0.02710  -0.02669   1.02045
   D20       -0.98355  -0.01104   0.00000  -0.11886  -0.11661  -1.10016
   D21        3.06683   0.00229   0.00000   0.02355   0.02165   3.08847
   D22       -0.96732  -0.00180   0.00000  -0.03404  -0.03405  -1.00136
   D23       -2.99801  -0.01031   0.00000  -0.12581  -0.12397  -3.12197
   D24        1.05237   0.00302   0.00000   0.01661   0.01429   1.06666
   D25       -0.30623  -0.00367   0.00000  -0.07138  -0.07237  -0.37859
   D26        1.79766  -0.00188   0.00000  -0.04785  -0.04518   1.75248
   D27       -2.40039  -0.00341   0.00000  -0.06724  -0.06891  -2.46930
         Item               Value     Threshold  Converged?
 Maximum Force            0.058312     0.000015     NO 
 RMS     Force            0.013242     0.000010     NO 
 Maximum Displacement     0.171502     0.000060     NO 
 RMS     Displacement     0.066449     0.000040     NO 
 Predicted change in Energy=-1.771793D-02
 Lowest energy point so far.  Saving SCF results.
 GradGradGradGradGradGradGradGradGradGradGradGradGradGradGradGradGradGrad

 Leave Link  103 at Wed Sep 20 14:34:46 2023, MaxMem=    33554432 cpu:         0.0
 (Enter /mnt/storage/apps/eb/software/gaussian/09/l202.exe)
                          Input orientation:                          
 ---------------------------------------------------------------------
 Center     Atomic      Atomic             Coordinates (Angstroms)
 Number     Number       Type             X           Y           Z
 ---------------------------------------------------------------------
      1          8           0       -1.579971   -0.256031    0.938731
      2          6           0       -1.299386   -0.123094   -0.425726
      3          6           0        0.209192   -0.206523   -0.611923
      4          8           0        0.740528   -1.424424   -0.142590
      5          6           0        0.981822    0.915403    0.074216
      6          8           0        2.369554    0.857326   -0.178445
      7          1           0       -2.517551   -0.236593    1.069697
      8          1           0       -1.671478    0.819778   -0.822872
      9          1           0       -1.767354   -0.928964   -0.994544
     10          1           0        0.418054   -0.134088   -1.677609
     11          1           0        0.056896   -2.002296    0.159909
     12          1           0        0.820378    0.871914    1.143337
     13          1           0        0.633488    1.868910   -0.305963
     14          1           0        2.605827   -0.021320   -0.435296
 ---------------------------------------------------------------------
                    Distance matrix (angstroms):
                    1          2          3          4          5
     1  O    0.000000
     2  C    1.399337   0.000000
     3  C    2.368139   1.522313   0.000000
     4  O    2.814091   2.436160   1.409210   0.000000
     5  C    2.946596   2.555842   1.525275   2.362206   0.000000
     6  O    4.252810   3.805719   2.446803   2.803818   1.411740
     7  H    0.946882   1.932123   3.203729   3.673644   3.816240
     8  H    2.066152   1.088662   2.152839   3.364075   2.802484
     9  H    2.055602   1.091776   2.138937   2.694582   3.478780
    10  H    3.294269   2.125308   1.088373   2.031069   2.118528
    11  H    2.517009   2.390370   1.960540   0.944878   3.061993
    12  H    2.660038   2.818758   2.148840   2.633087   1.082115
    13  H    3.311199   2.778205   2.140342   3.299121   1.083997
    14  H    4.411796   3.906551   2.410261   2.352386   1.942793
                    6          7          8          9         10
     6  O    0.000000
     7  H    5.161232   0.000000
     8  H    4.092266   2.326710   0.000000
     9  H    4.579395   2.302882   1.759762   0.000000
    10  H    2.653064   4.021937   2.450833   2.423719   0.000000
    11  H    3.693279   3.251645   3.452135   2.410951   2.645205
    12  H    2.036484   3.517951   3.174594   3.809206   3.021860
    13  H    2.013328   4.031703   2.584713   3.750505   2.437176
    14  H    0.945418   5.344189   4.376415   4.501254   2.518414
                   11         12         13         14
    11  H    0.000000
    12  H    3.132270   0.000000
    13  H    3.941539   1.769011   0.000000
    14  H    3.282619   2.545147   2.734926   0.000000
 Stoichiometry    C3H8O3
 Framework group  C1[X(C3H8O3)]
 Deg. of freedom    36
 Full point group                 C1      NOp   1
 RotChk:  IX=0 Diff= 3.05D-02
 Largest Abelian subgroup         C1      NOp   1
 Largest concise Abelian subgroup C1      NOp   1
                         Standard orientation:                         
 ---------------------------------------------------------------------
 Center     Atomic      Atomic             Coordinates (Angstroms)
 Number     Number       Type             X           Y           Z
 ---------------------------------------------------------------------
      1          8           0       -1.889890   -0.436092   -0.666207
      2          6           0       -1.402849   -0.205115    0.625143
      3          6           0        0.041319    0.263036    0.512663
      4          8           0        0.164819    1.441262   -0.250491
      5          6           0        0.982297   -0.769808   -0.099105
      6          8           0        2.326670   -0.339447   -0.120607
      7          1           0       -2.798032   -0.699553   -0.616669
      8          1           0       -1.456403   -1.100949    1.241419
      9          1           0       -1.985389    0.573172    1.122024
     10          1           0        0.403624    0.470849    1.517703
     11          1           0       -0.681188    1.766677   -0.517271
     12          1           0        0.672448   -0.994852   -1.111193
     13          1           0        0.951949   -1.673871    0.498221
     14          1           0        2.355599    0.604063   -0.068001
 ---------------------------------------------------------------------
 Rotational constants (GHZ):      6.3430570      2.2517639      1.9659973
 Leave Link  202 at Wed Sep 20 14:34:46 2023, MaxMem=    33554432 cpu:         0.0
 (Enter /mnt/storage/apps/eb/software/gaussian/09/l301.exe)
 Standard basis: 6-31G(d) (6D, 7F)
 Ernie: Thresh=  0.10000D-02 Tol=  0.10000D-05 Strict=F.
 There are   106 symmetry adapted cartesian basis functions of A   symmetry.
 There are   106 symmetry adapted basis functions of A   symmetry.
   106 basis functions,   200 primitive gaussians,   106 cartesian basis functions
    25 alpha electrons       25 beta electrons
       nuclear repulsion energy       265.2236872459 Hartrees.
 IExCor=    0 DFT=F Ex=HF Corr=None ExCW=0 ScaHFX=  1.000000
 ScaDFX=  1.000000  1.000000  1.000000  1.000000 ScalE2=  1.000000  1.000000
 IRadAn=      0 IRanWt=     -1 IRanGd=            0 ICorTp=0 IEmpDi=  4
 NAtoms=   14 NActive=   14 NUniq=   14 SFac= 1.00D+00 NAtFMM=   60 NAOKFM=F Big=F
 Integral buffers will be    131072 words long.
 Raffenetti 1 integral format.
 Two-electron integral symmetry is turned on.
 Leave Link  301 at Wed Sep 20 14:34:46 2023, MaxMem=    33554432 cpu:         0.0
 (Enter /mnt/storage/apps/eb/software/gaussian/09/l302.exe)
 NPDir=0 NMtPBC=     1 NCelOv=     1 NCel=       1 NClECP=     1 NCelD=      1
         NCelK=      1 NCelE2=     1 NClLst=     1 CellRange=     0.0.
 One-electron integrals computed using PRISM.
 NBasis=   106 RedAO= T EigKep=  3.33D-03  NBF=   106
 NBsUse=   106 1.00D-06 EigRej= -1.00D+00 NBFU=   106
 Leave Link  302 at Wed Sep 20 14:34:46 2023, MaxMem=    33554432 cpu:         0.1
 (Enter /mnt/storage/apps/eb/software/gaussian/09/l303.exe)
 DipDrv:  MaxL=1.
 Leave Link  303 at Wed Sep 20 14:34:46 2023, MaxMem=    33554432 cpu:         0.0
 (Enter /mnt/storage/apps/eb/software/gaussian/09/l401.exe)
 Initial guess from the checkpoint file:  "/scratch/nca121/18446470/Gau-11194.chk"
 B after Tr=     0.000000    0.000000    0.000000
         Rot=    0.999938   -0.009676    0.005330   -0.001507 Ang=  -1.28 deg.
 Guess basis will be translated and rotated to current coordinates.
 JPrj=2 DoOrth=T DoCkMO=T.
 Generating alternative initial guess.
 ExpMin= 1.61D-01 ExpMax= 5.48D+03 ExpMxC= 8.25D+02 IAcc=1 IRadAn=         1 AccDes= 0.00D+00
 Harris functional with IExCor=  205 and IRadAn=       1 diagonalized for initial guess.
 HarFok:  IExCor=  205 AccDes= 0.00D+00 IRadAn=         1 IDoV= 1 UseB2=F ITyADJ=14
 ICtDFT=  3500011 ScaDFX=  1.000000  1.000000  1.000000  1.000000
 FoFCou: FMM=F IPFlag=           0 FMFlag=      100000 FMFlg1=           0
         NFxFlg=           0 DoJE=T BraDBF=F KetDBF=T FulRan=T
         wScrn=  0.000000 ICntrl=     500 IOpCl=  0 I1Cent=   200000004 NGrid=           0
         NMat0=    1 NMatS0=      1 NMatT0=    0 NMatD0=    1 NMtDS0=    0 NMtDT0=    0
 Petite list used in FoFCou.
 Harris En= -343.193825828809    
 Leave Link  401 at Wed Sep 20 14:34:46 2023, MaxMem=    33554432 cpu:         0.3
 (Enter /mnt/storage/apps/eb/software/gaussian/09/l508.exe)
 Direct SCF.
 Tight linear equation convergence will be used.
 RHF wavefunction.
 Quadratic Convergence SCF Method.
 Line search only if initial step raises energy.
 Integral symmetry usage will be decided dynamically.
 ReadGW:  IGet=1 IStart=         402 Next=         402 LGW=           0.
 Keep R1 ints in memory in canonical form, NReq=17057140.
 FoFCou: FMM=F IPFlag=           0 FMFlag=           0 FMFlg1=           0
         NFxFlg=           0 DoJE=F BraDBF=F KetDBF=F FulRan=T
         wScrn=  0.000000 ICntrl=     600 IOpCl=  0 I1Cent=           0 NGrid=           0
         NMat0=    1 NMatS0=   5671 NMatT0=    0 NMatD0=    1 NMtDS0=    0 NMtDT0=    0
 Symmetry not used in FoFCou.
 Iteration   1 EE= -342.796731066194                                    Grad=1.151D-01 Max rot=    0.5363 deg.
 Gradient too large for Newton-Raphson -- use scaled steepest descent instead.
 Alpha Gap=     1.830 HL deriv= 1.59D-03
     ILin= 1 X=0.000D+00 Y=-3.427967310662D+02 DE= 0.00D+00 F= -1.10D-02
     ILin= 2 X=3.000D-01 Y=-3.427996220885D+02 DE=-2.89D-03 F= -8.25D-03
     ILin= 3 X=6.000D-01 Y=-3.428016840270D+02 DE=-4.95D-03 F= -5.49D-03
     ILin= 4 X=1.200D+00 Y=-3.428033214009D+02 DE=-6.59D-03 F=  3.31D-05
     Accept linear search using points  3 and  4.
     An  expanding polynomial of degree  4 produced  1.1666
     Minimum is close to point  4 DX= -3.34D-02 DF= -9.85D-07 DXR=  2.86D-02 DFR=  1.50D-04 which will be used.
 Iteration   2 EE= -342.803321400894     Delta-E=       -0.006590334701 Grad=5.790D-02 Max rot=    0.2702 deg.
 Gradient too large for Newton-Raphson -- use scaled steepest descent instead.
 Alpha Gap=     1.832 HL deriv= 9.49D-05
     ILin= 1 X=0.000D+00 Y=-3.428033214009D+02 DE= 0.00D+00 F= -2.74D-03
     ILin= 2 X=6.000D-01 Y=-3.428044262397D+02 DE=-1.10D-03 F= -9.41D-04
     ILin= 3 X=1.200D+00 Y=-3.428044510182D+02 DE=-1.13D-03 F=  8.59D-04
     Accept linear search using points  2 and  3.
     An  expanding polynomial of degree  3 produced  0.9055
 Iteration   3 EE= -342.804573840646     Delta-E=       -0.001252439752 Grad=3.249D-02 Max rot=    0.1840 deg.
 Gradient too large for Newton-Raphson -- use scaled steepest descent instead.
 Alpha Gap=     1.833 HL deriv= 7.82D-04
     ILin= 1 X=0.000D+00 Y=-3.428045738406D+02 DE= 0.00D+00 F= -9.28D-04
     ILin= 2 X=1.000D+00 Y=-3.428050122623D+02 DE=-4.38D-04 F=  5.16D-05
     Accept linear search using points  1 and  2.
     An  expanding polynomial of degree  2 produced  0.9474
     Minimum is close to point  2 DX= -5.26D-02 DF= -1.36D-06 DXR=  5.56D-02 DFR=  3.10D-03 which will be used.
 Iteration   4 EE= -342.805012262295     Delta-E=       -0.000438421649 Grad=2.647D-02 Max rot=    0.1340 deg.
 Gradient too large for Newton-Raphson -- use scaled steepest descent instead.
 Alpha Gap=     1.833 HL deriv= 1.31D-04
     ILin= 1 X=0.000D+00 Y=-3.428050122623D+02 DE= 0.00D+00 F= -5.81D-04
     ILin= 2 X=9.000D-01 Y=-3.428052263484D+02 DE=-2.14D-04 F=  1.05D-04
     Accept linear search using points  1 and  2.
     An  expanding polynomial of degree  2 produced  0.7346
 Iteration   5 EE= -342.805233311503     Delta-E=       -0.000221049208 Grad=1.543D-02 Max rot=    0.0792 deg.
 Gradient too large for Newton-Raphson -- use scaled steepest descent instead.
 Alpha Gap=     1.833 HL deriv= 3.50D-04
     ILin= 1 X=0.000D+00 Y=-3.428052333115D+02 DE= 0.00D+00 F= -2.12D-04
     ILin= 2 X=8.000D-01 Y=-3.428053431660D+02 DE=-1.10D-04 F= -6.26D-05
     Reject lnstep minimum 1.811D+00 FVal=-3.428054054432D+02 Lims=  0.00D+00  8.00D-01
     ILin= 3 X=1.700D+00 Y=-3.428053238167D+02 DE=-9.05D-05 F=  1.06D-04
     An  expanding polynomial of degree  3 produced  1.1349
 Iteration   6 EE= -342.805353645818     Delta-E=       -0.000120334314 Grad=1.496D-02 Max rot=    0.0839 deg.
 Gradient too large for Newton-Raphson -- use scaled steepest descent instead.
 Alpha Gap=     1.833 HL deriv= 4.50D-05
     ILin= 1 X=0.000D+00 Y=-3.428053536458D+02 DE= 0.00D+00 F= -1.88D-04
     ILin= 2 X=9.000D-01 Y=-3.428054142677D+02 DE=-6.06D-05 F=  5.37D-05
     Accept linear search using points  1 and  2.
     An  expanding polynomial of degree  2 produced  0.6723
 Iteration   7 EE= -342.805419527561     Delta-E=       -0.000065881743 Grad=8.349D-03 Max rot=    0.0407 deg.
 QCNR:  CnvC1=6.36D-09 CnvC2=6.36D-08
 LinEq1:  Iter=  0 NonCon=     1 RMS=1.28D-04 Max=1.88D-03 NDo=     1
 AX will form     1 AO Fock derivatives at one time.
 LinEq1:  Iter=  1 NonCon=     1 RMS=1.63D-05 Max=1.29D-04 NDo=     1
 LinEq1:  Iter=  2 NonCon=     1 RMS=6.14D-06 Max=6.17D-05 NDo=     1
 LinEq1:  Iter=  3 NonCon=     1 RMS=1.47D-06 Max=1.42D-05 NDo=     1
 LinEq1:  Iter=  4 NonCon=     1 RMS=5.79D-07 Max=5.70D-06 NDo=     1
 LinEq1:  Iter=  5 NonCon=     1 RMS=1.28D-07 Max=1.07D-06 NDo=     1
 LinEq1:  Iter=  6 NonCon=     1 RMS=2.88D-08 Max=2.80D-07 NDo=     1
 LinEq1:  Iter=  7 NonCon=     1 RMS=8.13D-09 Max=6.79D-08 NDo=     1
 LinEq1:  Iter=  8 NonCon=     0 RMS=2.25D-09 Max=1.61D-08 NDo=     1
 Linear equations converged to 6.364D-09 6.364D-08 after     8 iterations.
 Angle between quadratic step and gradient=  31.30 degrees.
     ILin= 1 X=0.000D+00 Y=-3.428054195276D+02 DE= 0.00D+00 F= -1.88D-04
     ILin= 2 X=1.000D+00 Y=-3.428055136336D+02 DE=-9.41D-05 F= -8.83D-08
     Reject lnstep minimum 1.000D+00 FVal=-3.428055136336D+02 Lims=  0.00D+00  1.00D+00
     ILin= 3 X=2.000D+00 Y=-3.428054197632D+02 DE=-2.36D-07 F=  1.88D-04
     An  expanding polynomial of degree  3 produced  1.0006
     Minimum is close to point  2 DX=  6.27D-04 DF= -3.69D-11 DXR=  6.26D-04 DFR=  3.93D-07 which will be used.
 Iteration   8 EE= -342.805513633611     Delta-E=       -0.000094106050 Grad=2.094D-05 Max rot=    0.0001 deg.
 QCNR:  CnvC1=2.09D-10 CnvC2=2.09D-09
 LinEq1:  Iter=  0 NonCon=     1 RMS=2.31D-07 Max=2.20D-06 NDo=     1
 LinEq1:  Iter=  1 NonCon=     1 RMS=7.71D-08 Max=7.39D-07 NDo=     1
 LinEq1:  Iter=  2 NonCon=     1 RMS=1.90D-08 Max=1.72D-07 NDo=     1
 LinEq1:  Iter=  3 NonCon=     1 RMS=6.12D-09 Max=6.13D-08 NDo=     1
 LinEq1:  Iter=  4 NonCon=     1 RMS=1.18D-09 Max=7.89D-09 NDo=     1
 LinEq1:  Iter=  5 NonCon=     1 RMS=3.14D-10 Max=2.32D-09 NDo=     1
 LinEq1:  Iter=  6 NonCon=     0 RMS=1.01D-10 Max=7.44D-10 NDo=     1
 Linear equations converged to 2.094D-10 2.094D-09 after     6 iterations.
 Angle between quadratic step and gradient=  38.73 degrees.
     ILin= 1 X=0.000D+00 Y=-3.428055136336D+02 DE= 0.00D+00 F= -4.41D-10
     ILin= 2 X=1.000D+00 Y=-3.428055136338D+02 DE=-2.16D-10
 Iteration   9 EE= -342.805513633827     Delta-E=       -0.000000000216 Grad=1.316D-08 Max rot=    0.0000 deg.
 Rotation gradient small -- convergence achieved.
 SCF Done:  E(RHF) =  -342.805513634     a.u. after    9 cycles
            Convg  =    0.1316D-07                    32 Fock formations.
              S**2 =  0.0000                  -V/T =  2.0016
 Leave Link  508 at Wed Sep 20 14:34:48 2023, MaxMem=    33554432 cpu:         1.6
 (Enter /mnt/storage/apps/eb/software/gaussian/09/l701.exe)
 Compute integral first derivatives.
 ... and contract with generalized density number  0.
 Leave Link  701 at Wed Sep 20 14:34:48 2023, MaxMem=    33554432 cpu:         0.1
 (Enter /mnt/storage/apps/eb/software/gaussian/09/l702.exe)
 L702 exits ... SP integral derivatives will be done elsewhere.
 Leave Link  702 at Wed Sep 20 14:34:48 2023, MaxMem=    33554432 cpu:         0.0
 (Enter /mnt/storage/apps/eb/software/gaussian/09/l703.exe)
 Compute integral first derivatives, UseDBF=F ICtDFT=           0.
 Integral derivatives from FoFJK, PRISM(SPDF).
 Calling FoFJK, ICntrl=      2127 FMM=F ISym2X=0 I1Cent= 0 IOpClX= 0 NMat=1 NMatS=1 NMatT=0.
 FoFJK:  IHMeth= 1 ICntrl=    2127 DoSepK=F KAlg= 0 I1Cent=   0 FoldK=F
 IRaf=         0 NMat=   1 IRICut=       1 DoRegI=T DoRafI=F ISym2E= 0.
 FoFCou: FMM=F IPFlag=           0 FMFlag=      100000 FMFlg1=         800
         NFxFlg=           0 DoJE=F BraDBF=F KetDBF=F FulRan=T
         wScrn=  0.000000 ICntrl=    2127 IOpCl=  0 I1Cent=           0 NGrid=           0
         NMat0=    1 NMatS0=      1 NMatT0=    0 NMatD0=    1 NMtDS0=    0 NMtDT0=    0
 Symmetry not used in FoFCou.
 Leave Link  703 at Wed Sep 20 14:34:50 2023, MaxMem=    33554432 cpu:         1.6
 (Enter /mnt/storage/apps/eb/software/gaussian/09/l716.exe)
 Dipole        =-1.75039747D+00 9.67631712D-02 7.25955003D-01
 ***** Axes restored to original set *****
 -------------------------------------------------------------------
 Center     Atomic                   Forces (Hartrees/Bohr)
 Number     Number              X              Y              Z
 -------------------------------------------------------------------
      1        8          -0.003101123   -0.000855498    0.000716195
      2        6           0.004700938   -0.000881793   -0.001684671
      3        6           0.006348117    0.002337919   -0.000251706
      4        8           0.000370968   -0.000792521   -0.005164827
      5        6           0.004566058    0.001298632    0.001442646
      6        8          -0.008642907    0.000987238   -0.006011015
      7        1           0.000028114    0.000062756    0.001589538
      8        1           0.001348616   -0.000540225    0.000650902
      9        1           0.000720569    0.001449899    0.000395203
     10        1          -0.001748035   -0.001309180   -0.000902870
     11        1          -0.001370357    0.000596125    0.003054327
     12        1          -0.003198829    0.000322029    0.000089315
     13        1          -0.000759008    0.001341232    0.002062310
     14        1           0.000736881   -0.004016613    0.004014655
 -------------------------------------------------------------------
 Cartesian Forces:  Max     0.008642907 RMS     0.002764678
 Leave Link  716 at Wed Sep 20 14:34:50 2023, MaxMem=    33554432 cpu:         0.0
 (Enter /mnt/storage/apps/eb/software/gaussian/09/l103.exe)

 GradGradGradGradGradGradGradGradGradGradGradGradGradGradGradGradGradGrad
 Berny optimization.
 Using GEDIIS/GDIIS optimizer.
 FormGI is forming the generalized inverse of G from B-inverse, IUseBI=4.
 Internal  Forces:  Max     0.008419125 RMS     0.002240503
 Search for a local minimum.
 Step number   2 out of a maximum of  100
 All quantities printed in internal units (Hartrees-Bohrs-Radians)
 RMS Force = .22405D-02 SwitMx=.10000D-02 MixMth= 1
 Mixed Optimization -- RFO/linear search
 Update second derivatives using D2CorX and points    1    2
 DE= -1.56D-02 DEPred=-1.77D-02 R= 8.78D-01
 TightC=F SS=  1.41D+00  RLast= 3.89D-01 DXNew= 5.0454D-01 1.1661D+00
 Trust test= 8.78D-01 RLast= 3.89D-01 DXMaxT set to 5.05D-01
 ITU=  1  0
 Use linear search instead of GDIIS.
     Eigenvalues ---    0.00630   0.00679   0.01685   0.01837   0.01841
     Eigenvalues ---    0.04441   0.04985   0.05117   0.05487   0.06167
     Eigenvalues ---    0.06226   0.07699   0.11212   0.11686   0.13694
     Eigenvalues ---    0.14000   0.15840   0.16000   0.16045   0.17407
     Eigenvalues ---    0.20272   0.22002   0.23958   0.31314   0.31720
     Eigenvalues ---    0.32156   0.32407   0.32500   0.32806   0.33262
     Eigenvalues ---    0.44870   0.47218   0.47314   0.47720   0.49211
     Eigenvalues ---    0.53449
 RFO step:  Lambda=-3.08559073D-03 EMin= 6.30241445D-03
 Quartic linear search produced a step of -0.01827.
 Iteration  1 RMS(Cart)=  0.05997350 RMS(Int)=  0.00329370
 Iteration  2 RMS(Cart)=  0.00308614 RMS(Int)=  0.00009005
 Iteration  3 RMS(Cart)=  0.00000362 RMS(Int)=  0.00008996
 Iteration  4 RMS(Cart)=  0.00000000 RMS(Int)=  0.00008996
 ITry= 1 IFail=0 DXMaxC= 2.62D-01 DCOld= 1.00D+10 DXMaxT= 5.05D-01 DXLimC= 3.00D+00 Rises=F
 Variable       Old X    -DE/DX   Delta X   Delta X   Delta X     New X
                                 (Linear)    (Quad)   (Total)
    R1        2.64436   0.00294  -0.00037   0.00734   0.00698   2.65134
    R2        1.78935   0.00019   0.00174  -0.00604  -0.00430   1.78505
    R3        2.87675  -0.00350  -0.00042  -0.00924  -0.00966   2.86709
    R4        2.05727  -0.00117   0.00088  -0.00679  -0.00591   2.05136
    R5        2.06316  -0.00158   0.00064  -0.00709  -0.00645   2.05671
    R6        2.66302  -0.00091  -0.00071   0.00078   0.00007   2.66309
    R7        2.88235  -0.00303  -0.00065  -0.00681  -0.00746   2.87490
    R8        2.05673   0.00046   0.00062  -0.00096  -0.00034   2.05639
    R9        1.78556   0.00160   0.00215  -0.00458  -0.00244   1.78313
   R10        2.66780  -0.00729  -0.00044  -0.01380  -0.01424   2.65357
   R11        2.04490   0.00055   0.00104  -0.00221  -0.00118   2.04372
   R12        2.04846   0.00070   0.00095  -0.00146  -0.00051   2.04795
   R13        1.78658   0.00283   0.00098   0.00161   0.00259   1.78917
    A1        1.90865   0.00280  -0.00048   0.01858   0.01810   1.92675
    A2        1.88889   0.00307   0.00068   0.01163   0.01231   1.90120
    A3        1.94922  -0.00037  -0.00071   0.00367   0.00301   1.95222
    A4        1.93045  -0.00099   0.00004  -0.00245  -0.00244   1.92801
    A5        1.91936  -0.00186   0.00004  -0.01183  -0.01181   1.90755
    A6        1.89714  -0.00051  -0.00068   0.00105   0.00034   1.89748
    A7        1.87834   0.00058   0.00063  -0.00240  -0.00180   1.87654
    A8        1.96089  -0.00025  -0.00109  -0.00103  -0.00205   1.95883
    A9        1.98958  -0.00348  -0.00035  -0.01523  -0.01551   1.97407
   A10        1.88209   0.00002   0.00136  -0.01473  -0.01330   1.86879
   A11        1.87013   0.00285   0.00036   0.01502   0.01532   1.88546
   A12        1.88732  -0.00092  -0.00027  -0.00251  -0.00307   1.88426
   A13        1.86953   0.00195   0.00000   0.02000   0.01986   1.88939
   A14        1.94162  -0.00114  -0.00010  -0.00644  -0.00654   1.93508
   A15        1.96835  -0.00842  -0.00192  -0.02758  -0.02941   1.93894
   A16        1.91698   0.00124   0.00092  -0.00204  -0.00092   1.91606
   A17        1.90336   0.00183   0.00107   0.00131   0.00254   1.90589
   A18        1.89845   0.00405  -0.00079   0.02651   0.02565   1.92411
   A19        1.86429   0.00329  -0.00028   0.01919   0.01881   1.88310
   A20        1.91125  -0.00189   0.00084  -0.01718  -0.01640   1.89485
   A21        1.90977  -0.00146   0.00132  -0.01380  -0.01249   1.89728
    D1       -3.10750  -0.00053   0.00022  -0.01016  -0.00992  -3.11742
    D2        1.06051  -0.00001   0.00018  -0.00545  -0.00529   1.05522
    D3       -1.03103   0.00016  -0.00017  -0.00319  -0.00336  -1.03439
    D4        1.03275   0.00030   0.00026  -0.03888  -0.03860   0.99415
    D5       -1.09902  -0.00064   0.00084  -0.04649  -0.04558  -1.14460
    D6        3.11087  -0.00097   0.00011  -0.05216  -0.05206   3.05880
    D7       -3.11688   0.00065  -0.00016  -0.03426  -0.03445   3.13185
    D8        1.03453  -0.00029   0.00042  -0.04187  -0.04144   0.99310
    D9       -1.03877  -0.00062  -0.00031  -0.04754  -0.04791  -1.08668
   D10       -1.06468   0.00000   0.00023  -0.04332  -0.04310  -1.10778
   D11        3.08674  -0.00094   0.00080  -0.05092  -0.05008   3.03665
   D12        1.01343  -0.00127   0.00007  -0.05660  -0.05656   0.95687
   D13        0.06056  -0.00102   0.00122  -0.08105  -0.07982  -0.01926
   D14        2.25874  -0.00355   0.00032  -0.09020  -0.08985   2.16889
   D15       -2.01449  -0.00030   0.00037  -0.06057  -0.06025  -2.07474
   D16       -3.08180  -0.00047  -0.00087  -0.05547  -0.05631  -3.13811
   D17        1.08077  -0.00080   0.00077  -0.06920  -0.06846   1.01232
   D18       -1.01378  -0.00036  -0.00175  -0.04774  -0.04942  -1.06320
   D19        1.02045   0.00010   0.00049  -0.05507  -0.05448   0.96597
   D20       -1.10016  -0.00024   0.00213  -0.06880  -0.06663  -1.16679
   D21        3.08847   0.00020  -0.00040  -0.04734  -0.04759   3.04089
   D22       -1.00136  -0.00120   0.00062  -0.06940  -0.06889  -1.07026
   D23       -3.12197  -0.00154   0.00226  -0.08312  -0.08104   3.08017
   D24        1.06666  -0.00110  -0.00026  -0.06166  -0.06200   1.00466
   D25       -0.37859  -0.00255   0.00132  -0.14024  -0.13887  -0.51746
   D26        1.75248  -0.00371   0.00083  -0.14238  -0.14186   1.61061
   D27       -2.46930  -0.00202   0.00126  -0.13824  -0.13672  -2.60602
         Item               Value     Threshold  Converged?
 Maximum Force            0.008419     0.000015     NO 
 RMS     Force            0.002241     0.000010     NO 
 Maximum Displacement     0.261680     0.000060     NO 
 RMS     Displacement     0.059662     0.000040     NO 
 Predicted change in Energy=-1.746195D-03
 Lowest energy point so far.  Saving SCF results.
 GradGradGradGradGradGradGradGradGradGradGradGradGradGradGradGradGradGrad

 Leave Link  103 at Wed Sep 20 14:34:50 2023, MaxMem=    33554432 cpu:         0.0
 (Enter /mnt/storage/apps/eb/software/gaussian/09/l202.exe)
                          Input orientation:                          
 ---------------------------------------------------------------------
 Center     Atomic      Atomic             Coordinates (Angstroms)
 Number     Number       Type             X           Y           Z
 ---------------------------------------------------------------------
      1          8           0       -1.559111   -0.312819    0.944242
      2          6           0       -1.286331   -0.116485   -0.417938
      3          6           0        0.213042   -0.195318   -0.636026
      4          8           0        0.753301   -1.417826   -0.189298
      5          6           0        0.975260    0.932521    0.043272
      6          8           0        2.355621    0.821308   -0.189174
      7          1           0       -2.490439   -0.288856    1.100248
      8          1           0       -1.649734    0.844503   -0.768403
      9          1           0       -1.767444   -0.887070   -1.017323
     10          1           0        0.384065   -0.124796   -1.708381
     11          1           0        0.081790   -1.965798    0.183743
     12          1           0        0.772739    0.923279    1.105592
     13          1           0        0.644592    1.881317   -0.362813
     14          1           0        2.572649   -0.093962   -0.296821
 ---------------------------------------------------------------------
                    Distance matrix (angstroms):
                    1          2          3          4          5
     1  O    0.000000
     2  C    1.403029   0.000000
     3  C    2.377306   1.517201   0.000000
     4  O    2.802357   2.430199   1.409245   0.000000
     5  C    2.964061   2.535335   1.521329   2.372232   0.000000
     6  O    4.230367   3.767706   2.413265   2.753389   1.404207
     7  H    0.944608   1.945373   3.214376   3.668699   3.823615
     8  H    2.069001   1.085535   2.137448   3.350832   2.749028
     9  H    2.054484   1.088363   2.132190   2.705824   3.458063
    10  H    3.293584   2.110814   1.088194   2.028762   2.129723
    11  H    2.450154   2.377759   1.955466   0.943589   3.036161
    12  H    2.644144   2.764420   2.144237   2.675423   1.081492
    13  H    3.373268   2.778977   2.138526   3.305491   1.083726
    14  H    4.319673   3.860946   2.386017   2.252599   1.928984
                    6          7          8          9         10
     6  O    0.000000
     7  H    5.136086   0.000000
     8  H    4.047087   2.341612   0.000000
     9  H    4.539169   2.316180   1.753329   0.000000
    10  H    2.662732   4.022199   2.441196   2.384871   0.000000
    11  H    3.616260   3.204447   3.435484   2.454767   2.657215
    12  H    2.047519   3.481039   3.063729   3.773149   3.027866
    13  H    2.020246   4.083946   2.550179   3.729647   2.429593
    14  H    0.946788   5.255915   4.351048   4.470407   2.604487
                   11         12         13         14
    11  H    0.000000
    12  H    3.110302   0.000000
    13  H    3.926291   1.757974   0.000000
    14  H    3.152632   2.498243   2.761066   0.000000
 Stoichiometry    C3H8O3
 Framework group  C1[X(C3H8O3)]
 Deg. of freedom    36
 Full point group                 C1      NOp   1
 RotChk:  IX=0 Diff= 1.67D-02
 Largest Abelian subgroup         C1      NOp   1
 Largest concise Abelian subgroup C1      NOp   1
                         Standard orientation:                         
 ---------------------------------------------------------------------
 Center     Atomic      Atomic             Coordinates (Angstroms)
 Number     Number       Type             X           Y           Z
 ---------------------------------------------------------------------
      1          8           0       -1.894133   -0.384370   -0.682823
      2          6           0       -1.387747   -0.227015    0.616140
      3          6           0        0.052434    0.242317    0.529500
      4          8           0        0.180260    1.438205   -0.204995
      5          6           0        0.981143   -0.791736   -0.089108
      6          8           0        2.301295   -0.316418   -0.144511
      7          1           0       -2.798243   -0.656357   -0.652970
      8          1           0       -1.429881   -1.152936    1.181189
      9          1           0       -1.965161    0.516578    1.162212
     10          1           0        0.387130    0.435873    1.546693
     11          1           0       -0.658459    1.725692   -0.527892
     12          1           0        0.634064   -1.048811   -1.080608
     13          1           0        0.974930   -1.686992    0.521581
     14          1           0        2.281263    0.626220   -0.230771
 ---------------------------------------------------------------------
 Rotational constants (GHZ):      6.3734443      2.2753885      1.9913098
 Leave Link  202 at Wed Sep 20 14:34:50 2023, MaxMem=    33554432 cpu:         0.0
 (Enter /mnt/storage/apps/eb/software/gaussian/09/l301.exe)
 Standard basis: 6-31G(d) (6D, 7F)
 Ernie: Thresh=  0.10000D-02 Tol=  0.10000D-05 Strict=F.
 There are   106 symmetry adapted cartesian basis functions of A   symmetry.
 There are   106 symmetry adapted basis functions of A   symmetry.
   106 basis functions,   200 primitive gaussians,   106 cartesian basis functions
    25 alpha electrons       25 beta electrons
       nuclear repulsion energy       266.1111521633 Hartrees.
 IExCor=    0 DFT=F Ex=HF Corr=None ExCW=0 ScaHFX=  1.000000
 ScaDFX=  1.000000  1.000000  1.000000  1.000000 ScalE2=  1.000000  1.000000
 IRadAn=      0 IRanWt=     -1 IRanGd=            0 ICorTp=0 IEmpDi=  4
 NAtoms=   14 NActive=   14 NUniq=   14 SFac= 1.00D+00 NAtFMM=   60 NAOKFM=F Big=F
 Integral buffers will be    131072 words long.
 Raffenetti 1 integral format.
 Two-electron integral symmetry is turned on.
 Leave Link  301 at Wed Sep 20 14:34:50 2023, MaxMem=    33554432 cpu:         0.0
 (Enter /mnt/storage/apps/eb/software/gaussian/09/l302.exe)
 NPDir=0 NMtPBC=     1 NCelOv=     1 NCel=       1 NClECP=     1 NCelD=      1
         NCelK=      1 NCelE2=     1 NClLst=     1 CellRange=     0.0.
 One-electron integrals computed using PRISM.
 NBasis=   106 RedAO= T EigKep=  3.25D-03  NBF=   106
 NBsUse=   106 1.00D-06 EigRej= -1.00D+00 NBFU=   106
 Leave Link  302 at Wed Sep 20 14:34:50 2023, MaxMem=    33554432 cpu:         0.1
 (Enter /mnt/storage/apps/eb/software/gaussian/09/l303.exe)
 DipDrv:  MaxL=1.
 Leave Link  303 at Wed Sep 20 14:34:50 2023, MaxMem=    33554432 cpu:         0.0
 (Enter /mnt/storage/apps/eb/software/gaussian/09/l401.exe)
 Initial guess from the checkpoint file:  "/scratch/nca121/18446470/Gau-11194.chk"
 B after Tr=     0.000000    0.000000    0.000000
         Rot=    0.999927   -0.011853   -0.001562    0.001605 Ang=  -1.38 deg.
 Guess basis will be translated and rotated to current coordinates.
 JPrj=2 DoOrth=T DoCkMO=T.
 Generating alternative initial guess.
 ExpMin= 1.61D-01 ExpMax= 5.48D+03 ExpMxC= 8.25D+02 IAcc=1 IRadAn=         1 AccDes= 0.00D+00
 Harris functional with IExCor=  205 and IRadAn=       1 diagonalized for initial guess.
 HarFok:  IExCor=  205 AccDes= 0.00D+00 IRadAn=         1 IDoV= 1 UseB2=F ITyADJ=14
 ICtDFT=  3500011 ScaDFX=  1.000000  1.000000  1.000000  1.000000
 FoFCou: FMM=F IPFlag=           0 FMFlag=      100000 FMFlg1=           0
         NFxFlg=           0 DoJE=T BraDBF=F KetDBF=T FulRan=T
         wScrn=  0.000000 ICntrl=     500 IOpCl=  0 I1Cent=   200000004 NGrid=           0
         NMat0=    1 NMatS0=      1 NMatT0=    0 NMatD0=    1 NMtDS0=    0 NMtDT0=    0
 Petite list used in FoFCou.
 Harris En= -343.196475296443    
 Leave Link  401 at Wed Sep 20 14:34:50 2023, MaxMem=    33554432 cpu:         0.3
 (Enter /mnt/storage/apps/eb/software/gaussian/09/l508.exe)
 Direct SCF.
 Tight linear equation convergence will be used.
 RHF wavefunction.
 Quadratic Convergence SCF Method.
 Line search only if initial step raises energy.
 Integral symmetry usage will be decided dynamically.
 ReadGW:  IGet=1 IStart=         402 Next=         402 LGW=           0.
 Keep R1 ints in memory in canonical form, NReq=17057150.
 FoFCou: FMM=F IPFlag=           0 FMFlag=           0 FMFlg1=           0
         NFxFlg=           0 DoJE=F BraDBF=F KetDBF=F FulRan=T
         wScrn=  0.000000 ICntrl=     600 IOpCl=  0 I1Cent=           0 NGrid=           0
         NMat0=    1 NMatS0=   5671 NMatT0=    0 NMatD0=    1 NMtDS0=    0 NMtDT0=    0
 Symmetry not used in FoFCou.
 Iteration   1 EE= -342.800681320141                                    Grad=9.748D-02 Max rot=    0.5541 deg.
 Gradient too large for Newton-Raphson -- use scaled steepest descent instead.
 Alpha Gap=     1.806 HL deriv= 3.31D-05
     ILin= 1 X=0.000D+00 Y=-3.428006813201D+02 DE= 0.00D+00 F= -8.10D-03
     ILin= 2 X=3.000D-01 Y=-3.428028484531D+02 DE=-2.17D-03 F= -6.34D-03
     ILin= 3 X=6.000D-01 Y=-3.428044871259D+02 DE=-3.81D-03 F= -4.58D-03
     ILin= 4 X=1.200D+00 Y=-3.428061781370D+02 DE=-5.50D-03 F= -1.06D-03
     ILin= 5 X=2.400D+00 Y=-3.428032098461D+02 DE=-2.53D-03 F=  6.00D-03
     An  expanding polynomial of degree  5 produced  1.3794
 Iteration   2 EE= -342.806272803705     Delta-E=       -0.005591483564 Grad=5.024D-02 Max rot=    0.2934 deg.
 Gradient too large for Newton-Raphson -- use scaled steepest descent instead.
 Alpha Gap=     1.807 HL deriv= 2.94D-04
     ILin= 1 X=0.000D+00 Y=-3.428062728037D+02 DE= 0.00D+00 F= -2.14D-03
     ILin= 2 X=6.000D-01 Y=-3.428071609894D+02 DE=-8.88D-04 F= -8.23D-04
     ILin= 3 X=1.300D+00 Y=-3.428072003129D+02 DE=-9.28D-04 F=  7.10D-04
     Accept linear search using points  2 and  3.
     An  expanding polynomial of degree  3 produced  0.9641
 Iteration   3 EE= -342.807315402237     Delta-E=       -0.001042598532 Grad=2.589D-02 Max rot=    0.1802 deg.
 Gradient too large for Newton-Raphson -- use scaled steepest descent instead.
 Alpha Gap=     1.807 HL deriv= 2.68D-04
     ILin= 1 X=0.000D+00 Y=-3.428073154022D+02 DE= 0.00D+00 F= -6.08D-04
     ILin= 2 X=1.200D+00 Y=-3.428076296404D+02 DE=-3.14D-04 F=  8.39D-05
     Accept linear search using points  1 and  2.
     An  expanding polynomial of degree  2 produced  1.0991
     Minimum is close to point  2 DX= -1.01D-01 DF= -3.49D-06 DXR=  9.18D-02 DFR=  1.11D-02 which will be used.
 Iteration   4 EE= -342.807629640389     Delta-E=       -0.000314238152 Grad=2.435D-02 Max rot=    0.1590 deg.
 Gradient too large for Newton-Raphson -- use scaled steepest descent instead.
 Alpha Gap=     1.807 HL deriv= 7.74D-05
     ILin= 1 X=0.000D+00 Y=-3.428076296404D+02 DE= 0.00D+00 F= -5.19D-04
     ILin= 2 X=1.000D+00 Y=-3.428077663880D+02 DE=-1.37D-04 F=  2.45D-04
     Accept linear search using points  1 and  2.
     An  expanding polynomial of degree  2 produced  0.6791
 Iteration   5 EE= -342.807805706576     Delta-E=       -0.000176066187 Grad=1.234D-02 Max rot=    0.1239 deg.
 Gradient too large for Newton-Raphson -- use scaled steepest descent instead.
 Alpha Gap=     1.807 HL deriv= 2.23D-04
     ILin= 1 X=0.000D+00 Y=-3.428078057066D+02 DE= 0.00D+00 F= -1.42D-04
     ILin= 2 X=9.000D-01 Y=-3.428078863977D+02 DE=-8.07D-05 F= -3.76D-05
     Reject lnstep minimum 3.129D+00 FVal=-3.428079221203D+02 Lims=  0.00D+00  9.00D-01
     ILin= 3 X=1.700D+00 Y=-3.428078795338D+02 DE=-7.38D-05 F=  5.48D-05
     An  expanding polynomial of degree  3 produced  1.2258
 Iteration   6 EE= -342.807892530231     Delta-E=       -0.000086823656 Grad=1.301D-02 Max rot=    0.0904 deg.
 Gradient too large for Newton-Raphson -- use scaled steepest descent instead.
 Alpha Gap=     1.807 HL deriv= 5.42D-05
     ILin= 1 X=0.000D+00 Y=-3.428078925302D+02 DE= 0.00D+00 F= -1.50D-04
     ILin= 2 X=9.000D-01 Y=-3.428079367950D+02 DE=-4.43D-05 F=  5.12D-05
     Accept linear search using points  1 and  2.
     An  expanding polynomial of degree  2 produced  0.6438
[...]
 Optimization completed.
    -- Stationary point found.
                           ----------------------------
                           !   Optimized Parameters   !
                           ! (Angstroms and Degrees)  !
 --------------------------                            --------------------------
 ! Name  Definition              Value          Derivative Info.                !
 --------------------------------------------------------------------------------
 ! R1    R(1,2)                  1.4081         -DE/DX =    0.0                 !
 ! R2    R(1,7)                  0.9465         -DE/DX =    0.0                 !
 ! R3    R(2,3)                  1.5188         -DE/DX =    0.0                 !
 ! R4    R(2,8)                  1.0872         -DE/DX =    0.0                 !
 ! R5    R(2,9)                  1.086          -DE/DX =    0.0                 !
 ! R6    R(3,4)                  1.4076         -DE/DX =    0.0                 !
 ! R7    R(3,5)                  1.5239         -DE/DX =    0.0                 !
 ! R8    R(3,10)                 1.0836         -DE/DX =    0.0                 !
 ! R9    R(4,11)                 0.9502         -DE/DX =    0.0                 !
 ! R10   R(5,6)                  1.3977         -DE/DX =    0.0                 !
 ! R11   R(5,12)                 1.0873         -DE/DX =    0.0                 !
 ! R12   R(5,13)                 1.0836         -DE/DX =    0.0                 !
 ! R13   R(6,14)                 0.9491         -DE/DX =    0.0                 !
 ! A1    A(2,1,7)              110.2994         -DE/DX =    0.0                 !
 ! A2    A(1,2,3)              107.3095         -DE/DX =    0.0                 !
 ! A3    A(1,2,8)              111.0337         -DE/DX =    0.0                 !
 ! A4    A(1,2,9)              110.537          -DE/DX =    0.0                 !
 ! A5    A(3,2,8)              110.3972         -DE/DX =    0.0                 !
 ! A6    A(3,2,9)              109.0841         -DE/DX =    0.0                 !
 ! A7    A(8,2,9)              108.4654         -DE/DX =    0.0                 !
 ! A8    A(2,3,4)              110.1949         -DE/DX =    0.0                 !
 ! A9    A(2,3,5)              113.5752         -DE/DX =    0.0                 !
 ! A10   A(2,3,10)             108.8953         -DE/DX =    0.0                 !
 ! A11   A(4,3,5)              109.4358         -DE/DX =    0.0                 !
 ! A12   A(4,3,10)             106.1424         -DE/DX =    0.0                 !
 ! A13   A(5,3,10)             108.3101         -DE/DX =    0.0                 !
 ! A14   A(3,4,11)             107.7847         -DE/DX =    0.0                 !
 ! A15   A(3,5,6)              110.4447         -DE/DX =    0.0                 !
 ! A16   A(3,5,12)             109.7976         -DE/DX =    0.0                 !
 ! A17   A(3,5,13)             110.4433         -DE/DX =    0.0                 !
 ! A18   A(6,5,12)             111.1049         -DE/DX =    0.0                 !
 ! A19   A(6,5,13)             107.0329         -DE/DX =    0.0                 !
 ! A20   A(12,5,13)            107.9546         -DE/DX =    0.0                 !
 ! A21   A(5,6,14)             107.6184         -DE/DX =    0.0                 !
 ! D1    D(7,1,2,3)           -171.7124         -DE/DX =    0.0                 !
 ! D2    D(7,1,2,8)             67.5598         -DE/DX =    0.0                 !
 ! D3    D(7,1,2,9)            -52.8664         -DE/DX =    0.0                 !
 ! D4    D(1,2,3,4)             56.6572         -DE/DX =    0.0                 !
 ! D5    D(1,2,3,5)            -66.5278         -DE/DX =    0.0                 !
 ! D6    D(1,2,3,10)           172.698          -DE/DX =    0.0                 !
 ! D7    D(8,2,3,4)            177.7867         -DE/DX =    0.0                 !
 ! D8    D(8,2,3,5)             54.6017         -DE/DX =    0.0                 !
 ! D9    D(8,2,3,10)           -66.1725         -DE/DX =    0.0                 !
 ! D10   D(9,2,3,4)            -63.121          -DE/DX =    0.0                 !
 ! D11   D(9,2,3,5)            173.694          -DE/DX =    0.0                 !
 ! D12   D(9,2,3,10)            52.9198         -DE/DX =    0.0                 !
 ! D13   D(2,3,4,11)           -44.6035         -DE/DX =    0.0                 !
 ! D14   D(5,3,4,11)            80.9663         -DE/DX =    0.0                 !
 ! D15   D(10,3,4,11)         -162.3575         -DE/DX =    0.0                 !
 ! D16   D(2,3,5,6)           -179.5709         -DE/DX =    0.0                 !
 ! D17   D(2,3,5,12)            57.5671         -DE/DX =    0.0                 !
 ! D18   D(2,3,5,13)           -61.3689         -DE/DX =    0.0                 !
 ! D19   D(4,3,5,6)             56.8291         -DE/DX =    0.0                 !
 ! D20   D(4,3,5,12)           -66.0328         -DE/DX =    0.0                 !
 ! D21   D(4,3,5,13)           175.0312         -DE/DX =    0.0                 !
 ! D22   D(10,3,5,6)           -58.4681         -DE/DX =    0.0                 !
 ! D23   D(10,3,5,12)          178.6699         -DE/DX =    0.0                 !
 ! D24   D(10,3,5,13)           59.7339         -DE/DX =    0.0                 !
 ! D25   D(3,5,6,14)           -48.2196         -DE/DX =    0.0                 !
 ! D26   D(12,5,6,14)           73.8765         -DE/DX =    0.0                 !
 ! D27   D(13,5,6,14)         -168.489          -DE/DX =    0.0                 !
 --------------------------------------------------------------------------------
 Lowest energy point so far.  Saving SCF results.
 GradGradGradGradGradGradGradGradGradGradGradGradGradGradGradGradGradGrad

 Largest change from initial coordinates is atom   11       0.439 Angstoms.
 Leave Link  103 at Wed Sep 20 14:35:39 2023, MaxMem=    33554432 cpu:         0.0
 (Enter /mnt/storage/apps/eb/software/gaussian/09/l202.exe)
                          Input orientation:                          
 ---------------------------------------------------------------------
 Center     Atomic      Atomic             Coordinates (Angstroms)
 Number     Number       Type             X           Y           Z
 ---------------------------------------------------------------------
      1          8           0       -1.538047   -0.374857    0.902218
      2          6           0       -1.318577   -0.091161   -0.459472
      3          6           0        0.177555   -0.182170   -0.704606
      4          8           0        0.656043   -1.450190   -0.324275
      5          6           0        0.979277    0.898006    0.011355
      6          8           0        2.342091    0.759226   -0.266192
      7          1           0       -2.465090   -0.455025    1.075678
      8          1           0       -1.684927    0.899957   -0.715571
      9          1           0       -1.826030   -0.818145   -1.086705
     10          1           0        0.364715   -0.096193   -1.768480
     11          1           0        0.268479   -1.666636    0.515863
     12          1           0        0.790562    0.848620    1.080995
     13          1           0        0.683331    1.881162   -0.335001
     14          1           0        2.570616   -0.152595   -0.134887
 ---------------------------------------------------------------------
                    Distance matrix (angstroms):
                    1          2          3          4          5
     1  O    0.000000
     2  C    1.408138   0.000000
     3  C    2.358453   1.518810   0.000000
     4  O    2.733982   2.400909   1.407649   0.000000
     5  C    2.958165   2.545636   1.523856   2.393982   0.000000
     6  O    4.207944   3.763111   2.400760   2.779865   1.397696
     7  H    0.946532   1.950276   3.198035   3.562540   3.850602
     8  H    2.064937   1.087250   2.154056   3.340126   2.761595
     9  H    2.057973   1.086018   2.136543   2.672353   3.467082
    10  H    3.291016   2.132369   1.083628   2.000977   2.129303
    11  H    2.254218   2.439703   1.923915   0.950204   2.708718
    12  H    2.636527   2.775733   2.150970   2.697666   1.087282
    13  H    3.399243   2.813038   2.156329   3.331480   1.083578
    14  H    4.243359   3.903198   2.460121   2.320605   1.912461
                    6          7          8          9         10
     6  O    0.000000
     7  H    5.136536   0.000000
     8  H    4.054457   2.377646   0.000000
     9  H    4.531509   2.283890   1.763385   0.000000
    10  H    2.626523   4.028125   2.510371   2.405285   0.000000
    11  H    3.285770   3.042005   3.452481   2.770403   2.773766
    12  H    2.056732   3.506962   3.059138   3.784650   3.032082
    13  H    2.003736   4.166574   2.591571   3.761410   2.462987
    14  H    0.949148   5.187992   4.422070   4.547462   2.745507
                   11         12         13         14
    11  H    0.000000
    12  H    2.630295   0.000000
    13  H    3.671912   1.755758   0.000000
    14  H    2.831189   2.376845   2.781736   0.000000
 Stoichiometry    C3H8O3
 Framework group  C1[X(C3H8O3)]
 Deg. of freedom    36
 Full point group                 C1      NOp   1
 RotChk:  IX=0 Diff= 1.33D-15
 Largest Abelian subgroup         C1      NOp   1
 Largest concise Abelian subgroup C1      NOp   1
                         Standard orientation:                         
 ---------------------------------------------------------------------
 Center     Atomic      Atomic             Coordinates (Angstroms)
 Number     Number       Type             X           Y           Z
 ---------------------------------------------------------------------
      1          8           0       -1.869622   -0.340557   -0.698555
      2          6           0       -1.388121   -0.271531    0.622900
      3          6           0        0.049882    0.212561    0.555186
      4          8           0        0.115852    1.447041   -0.118003
      5          6           0        0.996127   -0.779214   -0.110504
      6          8           0        2.299080   -0.273726   -0.129125
      7          1           0       -2.799868   -0.515380   -0.700385
      8          1           0       -1.438357   -1.243365    1.107798
      9          1           0       -1.973277    0.434101    1.205235
     10          1           0        0.405173    0.398964    1.561800
     11          1           0       -0.432599    1.385489   -0.891501
     12          1           0        0.648190   -1.001945   -1.116244
     13          1           0        1.023990   -1.708141    0.446685
     14          1           0        2.256938    0.617308   -0.453417
 ---------------------------------------------------------------------
 Rotational constants (GHZ):      6.4346041      2.2824586      2.0191162
 Leave Link  202 at Wed Sep 20 14:35:39 2023, MaxMem=    33554432 cpu:         0.0
 (Enter /mnt/storage/apps/eb/software/gaussian/09/l601.exe)
 Copying SCF densities to generalized density rwf, IOpCl= 0 IROHF=0.

 **********************************************************************

            Population analysis using the SCF density.

 **********************************************************************

 Orbital symmetries:
       Occupied  (A) (A) (A) (A) (A) (A) (A) (A) (A) (A) (A) (A)
                 (A) (A) (A) (A) (A) (A) (A) (A) (A) (A) (A) (A)
                 (A)
       Virtual   (A) (A) (A) (A) (A) (A) (A) (A) (A) (A) (A) (A)
                 (A) (A) (A) (A) (A) (A) (A) (A) (A) (A) (A) (A)
                 (A) (A) (A) (A) (A) (A) (A) (A) (A) (A) (A) (A)
                 (A) (A) (A) (A) (A) (A) (A) (A) (A) (A) (A) (A)
                 (A) (A) (A) (A) (A) (A) (A) (A) (A) (A) (A) (A)
                 (A) (A) (A) (A) (A) (A) (A) (A) (A) (A) (A) (A)
                 (A) (A) (A) (A) (A) (A) (A) (A) (A)
 The electronic state is 1-A.
 Alpha  occ. eigenvalues --  -20.58142 -20.56277 -20.54468 -11.28721 -11.27869
 Alpha  occ. eigenvalues --  -11.26277  -1.39764  -1.37038  -1.34565  -1.03404
 Alpha  occ. eigenvalues --   -0.92195  -0.82696  -0.74016  -0.69223  -0.67366
 Alpha  occ. eigenvalues --   -0.65843  -0.62148  -0.60217  -0.57581  -0.54303
 Alpha  occ. eigenvalues --   -0.50990  -0.49247  -0.46967  -0.45583  -0.41400
 Alpha virt. eigenvalues --    0.20324   0.25261   0.26065   0.29237   0.29971
 Alpha virt. eigenvalues --    0.31488   0.31908   0.35454   0.36894   0.41274
 Alpha virt. eigenvalues --    0.41950   0.44654   0.48231   0.77201   0.77761
 Alpha virt. eigenvalues --    0.80199   0.80530   0.83640   0.91008   0.93243
 Alpha virt. eigenvalues --    0.94240   0.94982   1.07141   1.09058   1.10137
 Alpha virt. eigenvalues --    1.11965   1.12138   1.15719   1.16817   1.19632
 Alpha virt. eigenvalues --    1.20535   1.23596   1.26615   1.28676   1.29540
 Alpha virt. eigenvalues --    1.33592   1.38518   1.44917   1.46374   1.49319
 Alpha virt. eigenvalues --    1.56856   1.65334   1.67975   1.72711   1.83613
 Alpha virt. eigenvalues --    1.84865   1.90806   1.92545   1.97023   2.00348
 Alpha virt. eigenvalues --    2.05629   2.12531   2.14527   2.18190   2.22854
 Alpha virt. eigenvalues --    2.30844   2.37052   2.44307   2.47012   2.48536
 Alpha virt. eigenvalues --    2.51543   2.59343   2.61782   2.69297   2.70802
 Alpha virt. eigenvalues --    2.75271   2.82111   2.88302   2.90497   2.97501
 Alpha virt. eigenvalues --    3.00179   3.13087   3.17481   3.26526   3.28098
 Alpha virt. eigenvalues --    4.15544   4.21558   4.26603   4.67787   4.77764
 Alpha virt. eigenvalues --    4.97999
          Condensed to atoms (all electrons):
               1          2          3          4          5          6
     1  O    8.415577   0.197556  -0.062433  -0.001988  -0.000585  -0.000006
     2  C    0.197556   4.878080   0.342812  -0.042845  -0.056163   0.003219
     3  C   -0.062433   0.342812   4.862585   0.204368   0.367941  -0.041003
     4  O   -0.001988  -0.042845   0.204368   8.433022  -0.058851  -0.004187
     5  C   -0.000585  -0.056163   0.367941  -0.058851   4.794364   0.226704
     6  O   -0.000006   0.003219  -0.041003  -0.004187   0.226704   8.381062
     7  H    0.264987  -0.021195   0.005796  -0.000025  -0.000168   0.000001
     8  H   -0.038574   0.391384  -0.042824   0.003281  -0.003515  -0.000019
     9  H   -0.037968   0.397179  -0.035330  -0.000312   0.005033  -0.000061
    10  H    0.002465  -0.042292   0.407787  -0.038174  -0.047943   0.002123
    11  H    0.016219  -0.013045  -0.029492   0.261228  -0.000147   0.000060
    12  H    0.003871  -0.002067  -0.044264  -0.001162   0.391677  -0.040561
    13  H    0.000292  -0.000222  -0.040712   0.003519   0.393423  -0.037118
    14  H   -0.000004   0.000500  -0.012618   0.016659  -0.028534   0.261793
               7          8          9         10         11         12
     1  O    0.264987  -0.038574  -0.037968   0.002465   0.016219   0.003871
     2  C   -0.021195   0.391384   0.397179  -0.042292  -0.013045  -0.002067
     3  C    0.005796  -0.042824  -0.035330   0.407787  -0.029492  -0.044264
     4  O   -0.000025   0.003281  -0.000312  -0.038174   0.261228  -0.001162
     5  C   -0.000168  -0.003515   0.005033  -0.047943  -0.000147   0.391677
     6  O    0.000001  -0.000019  -0.000061   0.002123   0.000060  -0.040561
     7  H    0.305261  -0.002168  -0.004159  -0.000123  -0.000539  -0.000033
     8  H   -0.002168   0.575128  -0.039902   0.001411   0.000581   0.000269
     9  H   -0.004159  -0.039902   0.554032  -0.003495  -0.000261  -0.000076
    10  H   -0.000123   0.001411  -0.003495   0.525491   0.005310   0.005005
    11  H   -0.000539   0.000581  -0.000261   0.005310   0.297479   0.002067
    12  H   -0.000033   0.000269  -0.000076   0.005005   0.002067   0.565658
    13  H   -0.000011   0.001238  -0.000188  -0.001824  -0.000046  -0.035672
    14  H    0.000001  -0.000025  -0.000010  -0.000184  -0.000318  -0.001682
              13         14
     1  O    0.000292  -0.000004
     2  C   -0.000222   0.000500
     3  C   -0.040712  -0.012618
     4  O    0.003519   0.016659
     5  C    0.393423  -0.028534
     6  O   -0.037118   0.261793
     7  H   -0.000011   0.000001
     8  H    0.001238  -0.000025
     9  H   -0.000188  -0.000010
    10  H   -0.001824  -0.000184
    11  H   -0.000046  -0.000318
    12  H   -0.035672  -0.001682
    13  H    0.554421   0.005844
    14  H    0.005844   0.304879
 Mulliken charges:
               1
     1  O   -0.759411
     2  C   -0.032901
     3  C    0.117388
     4  O   -0.774534
     5  C    0.016763
     6  O   -0.752008
     7  H    0.452377
     8  H    0.153733
     9  H    0.165518
    10  H    0.184443
    11  H    0.460903
    12  H    0.156970
    13  H    0.157057
    14  H    0.453700
 Sum of Mulliken charges =   0.00000
 Mulliken charges with hydrogens summed into heavy atoms:
               1
     1  O   -0.307034
     2  C    0.286350
     3  C    0.301831
     4  O   -0.313631
     5  C    0.330791
     6  O   -0.298307
 Electronic spatial extent (au):  <R**2>=            637.9805
 Charge=              0.0000 electrons
 Dipole moment (field-independent basis, Debye):
    X=             -3.8687    Y=             -0.6492    Z=              0.3466  Tot=              3.9380
 Quadrupole moment (field-independent basis, Debye-Ang):
   XX=            -35.4000   YY=            -38.2485   ZZ=            -34.7999
   XY=              3.1701   XZ=             -1.2720   YZ=             -2.5230
 Traceless Quadrupole moment (field-independent basis, Debye-Ang):
   XX=              0.7495   YY=             -2.0990   ZZ=              1.3496
   XY=              3.1701   XZ=             -1.2720   YZ=             -2.5230
 Octapole moment (field-independent basis, Debye-Ang**2):
  XXX=            -44.9982  YYY=             -3.4402  ZZZ=             -3.8901  XYY=             -0.6952
  XXY=              6.3515  XXZ=             -5.5969  XZZ=              0.1789  YZZ=              4.1129
  YYZ=             -3.3626  XYZ=             -0.9937
 Hexadecapole moment (field-independent basis, Debye-Ang**3):
 XXXX=           -437.5228 YYYY=           -171.9878 ZZZZ=            -99.8005 XXXY=             45.3430
 XXXZ=             13.7928 YYYX=             -0.5683 YYYZ=             -7.5096 ZZZX=              4.2098
 ZZZY=             -2.5081 XXYY=           -100.1469 XXZZ=            -95.0705 YYZZ=            -40.2345
 XXYZ=             -1.5394 YYXZ=              2.6925 ZZXY=              0.9350
 N-N= 2.667938257599D+02 E-N=-1.341768442676D+03  KE= 3.422779306024D+02
 No NMR shielding tensors so no spin-rotation constants.
 Leave Link  601 at Wed Sep 20 14:35:39 2023, MaxMem=    33554432 cpu:         0.1
 (Enter /mnt/storage/apps/eb/software/gaussian/09/l9999.exe)
 1\1\GINC-SB084\FOpt\RHF\6-31G(d)\C3H8O3\NCA121\20-Sep-2023\0\\#P hf/6-
 31G* scf(qc) opt(tight,maxcycle=100)\\Gaussian input prepared by ASE\\
 0,1\O,-1.5380467572,-0.3748571605,0.9022182447\C,-1.3185769767,-0.0911
 605683,-0.4594724795\C,0.1775550529,-0.182169897,-0.7046056038\O,0.656
 0434369,-1.4501897886,-0.3242749582\C,0.9792772383,0.8980060994,0.0113
 548978\O,2.3420910462,0.7592257905,-0.2661921642\H,-2.4650896516,-0.45
 5024795,1.0756778501\H,-1.6849267368,0.8999567699,-0.7155708193\H,-1.8
 260299502,-0.8181451612,-1.0867050803\H,0.3647152717,-0.0961925537,-1.
 768479912\H,0.268479127,-1.666635786,0.5158633934\H,0.7905616202,0.848
 6196479,1.0809947463\H,0.6833312377,1.8811615265,-0.3350014576\H,2.570
 6160416,-0.1525951239,-0.1348866574\\Version=ES64L-G09RevD.01\State=1-
 A\HF=-342.8144275\RMSD=0.000e+00\RMSF=1.124e-06\Dipole=-1.5366845,-0.1
 368417,0.1426262\Quadrupole=2.0163064,-2.0090625,-0.0072439,-2.0603068
 ,0.8207027,-1.6955578\PG=C01 [X(C3H8O3)]\\@


 WE DON'T KNOW ONE MILLIONTH OF ONE PERCENT ABOUT
 ANYTHING.
                                     T. A. EDISON.
 Job cpu time:       0 days  0 hours  0 minutes 56.5 seconds.
 File lengths (MBytes):  RWF=      6 Int=      0 D2E=      0 Chk=      2 Scr=      1
 Normal termination of Gaussian 09 at Wed Sep 20 14:35:39 2023.
