
    -----------------------------------------------------------------------
          Psi4: An Open-Source Ab Initio Electronic Structure Package
                               Psi4 1.8.1 release

                         Git: Rev {} zzzzzzz 


    D. G. A. Smith, L. A. Burns, A. C. Simmonett, R. M. Parrish,
    M. C. Schieber, R. Galvelis, P. Kraus, H. Kruse, R. Di Remigio,
    A. Alenaizan, A. M. James, S. Lehtola, J. P. Misiewicz, M. Scheurer,
    R. A. Shaw, J. B. Schriber, Y. Xie, Z. L. Glick, D. A. Sirianni,
    J. S. O'Brien, J. M. Waldrop, A. Kumar, E. G. Hohenstein,
    B. P. Pritchard, B. R. Brooks, H. F. Schaefer III, A. Yu. Sokolov,
    K. Patkowski, A. E. DePrince III, U. Bozkaya, R. A. King,
    F. A. Evangelista, J. M. Turney, T. D. Crawford, C. D. Sherrill,
    J. Chem. Phys. 152(18) 184108 (2020). https://doi.org/10.1063/5.0006002

                            Additional Code Authors
    E. T. Seidl, C. L. Janssen, E. F. Valeev, M. L. Leininger,
    J. F. Gonthier, R. M. Richard, H. R. McAlexander, M. Saitow, X. Wang,
    P. Verma, M. H. Lechner, A. Jiang, S. Behnle, A. G. Heide,
    M. F. Herbst, and D. L. Poole

             Previous Authors, Complete List of Code Contributors,
                       and Citations for Specific Modules
    https://github.com/psi4/psi4/blob/master/codemeta.json
    https://github.com/psi4/psi4/graphs/contributors
    http://psicode.org/psi4manual/master/introduction.html#citing-psifour

    -----------------------------------------------------------------------


    Psi4 started on: Friday, 15 September 2023 09:30AM

    Process ID: 29944
    Host:       sb103.cluster
    PSIDATADIR: /mnt/nfs/home/nca121/.conda/envs/p4env/share/psi4
    Memory:     500.0 MiB
    Threads:    4
    
  ==> Input File <==

--------------------------------------------------------------------------
molecule mol {

  noreorient

  nocom

  0 1

  O -0.441725969  0.405654699  0.224152058

  C  0.952345967  0.538462937 -0.032555223

  C  1.143980265  1.233094573 -1.374383688

  O  2.467077732  1.773290634 -1.406449676

  C  0.985560060  0.257294655 -2.534839153

  O -0.396745652  0.041104283 -2.798947811

  H -0.532666981 -0.039461162  1.083984137

  H  1.390232444  1.123285651  0.783144593

  H  1.392245412 -0.463723868 -0.041223831

  H  0.455191284  2.079832554 -1.471976757

  H  2.562606573  2.207801580 -2.266771555

  H  1.443327546 -0.711507380 -2.311905861

  H  1.432889819  0.657149851 -3.450341940

  H -0.443421751 -0.582687497 -3.540498734

}



set {

  basis 6-31G*
  DYNAMIC_LEVEL 2
}



optimize('scf')



E,wfn = prop('hf', properties = ['GRID_ESP', 'GRID_FIELD'], return_wfn=True)
--------------------------------------------------------------------------

Scratch directory: /mnt/storage/nobackup/nca121/scratch_dir/
gradient() will perform analytic gradient computation.
   => Libint2 <=

    Primary   basis highest AM E, G, H:  5, 4, 3
    Auxiliary basis highest AM E, G, H:  6, 5, 4
    Onebody   basis highest AM E, G, H:  6, 5, 4
    Solid Harmonics ordering:            gaussian

*** tstart() called on sb103.cluster
*** at Fri Sep 15 09:30:57 2023

   => Loading Basis Set <=

    Name: 6-31G*
    Role: ORBITAL
    Keyword: BASIS
    atoms 1, 4, 6 entry O          line   145 file /mnt/nfs/home/nca121/.conda/envs/p4env/share/psi4/basis/6-31gs.gbs 
    atoms 2-3, 5  entry C          line   111 file /mnt/nfs/home/nca121/.conda/envs/p4env/share/psi4/basis/6-31gs.gbs 
    atoms 7-14    entry H          line    44 file /mnt/nfs/home/nca121/.conda/envs/p4env/share/psi4/basis/6-31gs.gbs 


         ---------------------------------------------------------
                                   SCF
               by Justin Turney, Rob Parrish, Andy Simmonett
                          and Daniel G. A. Smith
                              RHF Reference
                        4 Threads,    500 MiB Core
         ---------------------------------------------------------

  ==> Geometry <==

    Molecular point group: c1
    Full point group: C1

    Geometry (in Angstrom), charge = 0, multiplicity = 1:

       Center              X                  Y                   Z               Mass       
    ------------   -----------------  -----------------  -----------------  -----------------
         O           -0.441725969000     0.405654699000     0.224152058000    15.994914619570
         C            0.952345967000     0.538462937000    -0.032555223000    12.000000000000
         C            1.143980265000     1.233094573000    -1.374383688000    12.000000000000
         O            2.467077732000     1.773290634000    -1.406449676000    15.994914619570
         C            0.985560060000     0.257294655000    -2.534839153000    12.000000000000
         O           -0.396745652000     0.041104283000    -2.798947811000    15.994914619570
         H           -0.532666981000    -0.039461162000     1.083984137000     1.007825032230
         H            1.390232444000     1.123285651000     0.783144593000     1.007825032230
         H            1.392245412000    -0.463723868000    -0.041223831000     1.007825032230
         H            0.455191284000     2.079832554000    -1.471976757000     1.007825032230
         H            2.562606573000     2.207801580000    -2.266771555000     1.007825032230
         H            1.443327546000    -0.711507380000    -2.311905861000     1.007825032230
         H            1.432889819000     0.657149851000    -3.450341940000     1.007825032230
         H           -0.443421751000    -0.582687497000    -3.540498734000     1.007825032230

  Running in c1 symmetry.

  Rotational constants: A =      0.11398  B =      0.04127  C =      0.03209 [cm^-1]
  Rotational constants: A =   3417.01995  B =   1237.12286  C =    962.06186 [MHz]
  Nuclear repulsion =  261.676331691510882

  Charge       = 0
  Multiplicity = 1
  Electrons    = 50
  Nalpha       = 25
  Nbeta        = 25

  ==> Algorithm <==

  SCF Algorithm Type is DF.
  DIIS enabled.
  MOM disabled.
  Fractional occupation disabled.
  Guess Type is SAD.
  Energy threshold   = 1.00e-08
  Density threshold  = 1.00e-08
  Integral threshold = 1.00e-12

  ==> Primary Basis <==

  Basis Set: 6-31G*
    Blend: 6-31G*
    Number of shells: 52
    Number of basis functions: 106
    Number of Cartesian functions: 106
    Spherical Harmonics?: false
    Max angular momentum: 2

   => Loading Basis Set <=

    Name: (6-31G* AUX)
    Role: JKFIT
    Keyword: DF_BASIS_SCF
    atoms 1, 4, 6 entry O          line   221 file /mnt/nfs/home/nca121/.conda/envs/p4env/share/psi4/basis/cc-pvdz-jkfit.gbs 
    atoms 2-3, 5  entry C          line   121 file /mnt/nfs/home/nca121/.conda/envs/p4env/share/psi4/basis/cc-pvdz-jkfit.gbs 
    atoms 7-14    entry H          line    51 file /mnt/nfs/home/nca121/.conda/envs/p4env/share/psi4/basis/cc-pvdz-jkfit.gbs 

  ==> Integral Setup <==

  DFHelper Memory: AOs need 0.063 GiB; user supplied 0.366 GiB. 
  Using in-core AOs.

  ==> MemDFJK: Density-Fitted J/K Matrices <==

    J tasked:                   Yes
    K tasked:                   Yes
    wK tasked:                   No
    OpenMP threads:               4
    Memory [MiB]:               375
    Algorithm:                 Core
    Schwarz Cutoff:           1E-12
    Mask sparsity (%):       1.2460
    Fitting Condition:        1E-10

   => Auxiliary Basis Set <=

  Basis Set: (6-31G* AUX)
    Blend: CC-PVDZ-JKFIT
    Number of shells: 216
    Number of basis functions: 686
    Number of Cartesian functions: 686
    Spherical Harmonics?: false
    Max angular momentum: 3

  Minimum eigenvalue in the overlap matrix is 3.2939808942E-03.
  Reciprocal condition number of the overlap matrix is 4.6115928500E-04.
    Using symmetric orthogonalization.

  ==> Pre-Iterations <==

  SCF Guess: Superposition of Atomic Densities via on-the-fly atomic UHF (no occupation information).

   -------------------------
    Irrep   Nso     Nmo    
   -------------------------
     A        106     106 
   -------------------------
    Total     106     106
   -------------------------

  ==> Iterations <==

                           Total Energy        Delta E     RMS |[F,P]|

   @DF-RHF iter SAD:  -341.67349870986919   -3.41673e+02   0.00000e+00 
   @DF-RHF iter   1:  -342.61625052865156   -9.42752e-01   5.67443e-03 ADIIS/DIIS
   @DF-RHF iter   2:  -342.75550386835783   -1.39253e-01   3.06728e-03 ADIIS/DIIS
   @DF-RHF iter   3:  -342.79174761283082   -3.62437e-02   4.90305e-04 ADIIS/DIIS
   @DF-RHF iter   4:  -342.79350409237776   -1.75648e-03   1.18211e-04 ADIIS/DIIS
   @DF-RHF iter   5:  -342.79359888028529   -9.47879e-05   3.16198e-05 DIIS
   @DF-RHF iter   6:  -342.79360653409952   -7.65381e-06   7.73198e-06 DIIS
   @DF-RHF iter   7:  -342.79360721208860   -6.77989e-07   2.01792e-06 DIIS
   @DF-RHF iter   8:  -342.79360725118937   -3.91008e-08   8.41507e-07 DIIS
   @DF-RHF iter   9:  -342.79360725703725   -5.84788e-09   1.59868e-07 DIIS
   @DF-RHF iter  10:  -342.79360725736478   -3.27532e-10   4.92238e-08 DIIS
   @DF-RHF iter  11:  -342.79360725739679   -3.20028e-11   1.61768e-08 DIIS
   @DF-RHF iter  12:  -342.79360725740025   -3.46745e-12   4.12075e-09 DIIS
  Energy and wave function converged.


  ==> Post-Iterations <==

    Orbital Energies [Eh]
    ---------------------

    Doubly Occupied:                                                      

       1A    -20.565399     2A    -20.556585     3A    -20.552781  
       4A    -11.282136     5A    -11.278345     6A    -11.273287  
       7A     -1.368427     8A     -1.348066     9A     -1.344264  
      10A     -1.021909    11A     -0.914605    12A     -0.803126  
      13A     -0.716357    14A     -0.676603    15A     -0.672143  
      16A     -0.655291    17A     -0.614592    18A     -0.584194  
      19A     -0.564541    20A     -0.526004    21A     -0.517935  
      22A     -0.472962    23A     -0.453881    24A     -0.437815  
      25A     -0.427632  

    Virtual:                                                              

      26A      0.206506    27A      0.217102    28A      0.235822  
      29A      0.273658    30A      0.306635    31A      0.310256  
      32A      0.334312    33A      0.343487    34A      0.396741  
      35A      0.411464    36A      0.415670    37A      0.474053  
      38A      0.495246    39A      0.744936    40A      0.753438  
      41A      0.797428    42A      0.834710    43A      0.850304  
      44A      0.888712    45A      0.938719    46A      0.990535  
      47A      1.027657    48A      1.058939    49A      1.072924  
      50A      1.106018    51A      1.115696    52A      1.124570  
      53A      1.142919    54A      1.172272    55A      1.187636  
      56A      1.218054    57A      1.241294    58A      1.255271  
      59A      1.262400    60A      1.268794    61A      1.325987  
      62A      1.350205    63A      1.404945    64A      1.455106  
      65A      1.497013    66A      1.557561    67A      1.668227  
      68A      1.725532    69A      1.732108    70A      1.786605  
      71A      1.898648    72A      1.931318    73A      1.945921  
      74A      1.993442    75A      2.040804    76A      2.057935  
      77A      2.099665    78A      2.153924    79A      2.212537  
      80A      2.214390    81A      2.268821    82A      2.363393  
      83A      2.403976    84A      2.414520    85A      2.429866  
      86A      2.487714    87A      2.604397    88A      2.648101  
      89A      2.706651    90A      2.722458    91A      2.791247  
      92A      2.817129    93A      2.836985    94A      2.852743  
      95A      2.915234    96A      2.995480    97A      3.065820  
      98A      3.216145    99A      3.258671   100A      3.323028  
     101A      4.050976   102A      4.265647   103A      4.288811  
     104A      4.624019   105A      4.829282   106A      4.986986  

    Final Occupation by Irrep:
              A 
    DOCC [    25 ]
    NA   [    25 ]
    NB   [    25 ]

  @DF-RHF Final Energy:  -342.79360725740025

   => Energetics <=

    Nuclear Repulsion Energy =            261.6763316915108817
    One-Electron Energy =                -989.6821140128886327
    Two-Electron Energy =                 385.2121750639774973
    Total Energy =                       -342.7936072574002537

Computation Completed


Properties will be evaluated at   0.000000,   0.000000,   0.000000 [a0]

Properties computed using the SCF density matrix


 Multipole Moments:

 ------------------------------------------------------------------------------------
     Multipole            Electronic (a.u.)      Nuclear  (a.u.)        Total (a.u.)
 ------------------------------------------------------------------------------------

 L = 1.  Multiply by 2.5417464519 to convert [e a0] to [Debye]
 Dipole X            :        -73.5881453           74.1161376            0.5279924
 Dipole Y            :        -65.1263512           64.6365697           -0.4897815
 Dipole Z            :        125.6458164         -126.0753873           -0.4295708
 Magnitude           :                                                    0.8385660

 ------------------------------------------------------------------------------------

*** tstop() called on sb103.cluster at Fri Sep 15 09:30:59 2023
Module time:
	user time   =       5.72 seconds =       0.10 minutes
	system time =       0.62 seconds =       0.01 minutes
	total time  =          2 seconds =       0.03 minutes
Total time:
	user time   =       5.72 seconds =       0.10 minutes
	system time =       0.62 seconds =       0.01 minutes
	total time  =          2 seconds =       0.03 minutes

*** tstart() called on sb103.cluster
*** at Fri Sep 15 09:30:59 2023


         ------------------------------------------------------------
                                   SCF GRAD                          
                          Rob Parrish, Justin Turney,                
                       Andy Simmonett, and Alex Sokolov              
         ------------------------------------------------------------

  ==> Geometry <==

    Molecular point group: c1
    Full point group: C1

    Geometry (in Angstrom), charge = 0, multiplicity = 1:

       Center              X                  Y                   Z               Mass       
    ------------   -----------------  -----------------  -----------------  -----------------
         O           -0.441725969000     0.405654699000     0.224152058000    15.994914619570
         C            0.952345967000     0.538462937000    -0.032555223000    12.000000000000
         C            1.143980265000     1.233094573000    -1.374383688000    12.000000000000
         O            2.467077732000     1.773290634000    -1.406449676000    15.994914619570
         C            0.985560060000     0.257294655000    -2.534839153000    12.000000000000
         O           -0.396745652000     0.041104283000    -2.798947811000    15.994914619570
         H           -0.532666981000    -0.039461162000     1.083984137000     1.007825032230
         H            1.390232444000     1.123285651000     0.783144593000     1.007825032230
         H            1.392245412000    -0.463723868000    -0.041223831000     1.007825032230
         H            0.455191284000     2.079832554000    -1.471976757000     1.007825032230
         H            2.562606573000     2.207801580000    -2.266771555000     1.007825032230
         H            1.443327546000    -0.711507380000    -2.311905861000     1.007825032230
         H            1.432889819000     0.657149851000    -3.450341940000     1.007825032230
         H           -0.443421751000    -0.582687497000    -3.540498734000     1.007825032230

  Nuclear repulsion =  261.676331691510882

  ==> Basis Set <==

  Basis Set: 6-31G*
    Blend: 6-31G*
    Number of shells: 52
    Number of basis functions: 106
    Number of Cartesian functions: 106
    Spherical Harmonics?: false
    Max angular momentum: 2

  ==> DFJKGrad: Density-Fitted SCF Gradients <==

    Gradient:                    1
    J tasked:                  Yes
    K tasked:                  Yes
    wK tasked:                  No
    OpenMP threads:              4
    Integrals threads:           4
    Memory [MiB]:              375
    Schwarz Cutoff:          1E-12
    Fitting Condition:       1E-10

   => Auxiliary Basis Set <=

  Basis Set: (6-31G* AUX)
    Blend: CC-PVDZ-JKFIT
    Number of shells: 216
    Number of basis functions: 686
    Number of Cartesian functions: 686
    Spherical Harmonics?: false
    Max angular momentum: 3


  -Total Gradient:
     Atom            X                  Y                   Z
    ------   -----------------  -----------------  -----------------
       1       -0.008981313972     0.009975201306    -0.019361533863
       2        0.016497952543     0.000823479466    -0.016575507268
       3       -0.011639059081    -0.009934367431     0.002578187866
       4        0.007645293917     0.001687320961     0.017695051529
       5        0.023278295198     0.008161480945     0.014557378308
       6       -0.011777360024     0.012685884851     0.015756683867
       7       -0.000183038406    -0.012397754429     0.024448033630
       8       -0.004148189592     0.002207773149     0.010238968068
       9       -0.004806196498    -0.008850415088     0.001155945875
      10        0.002683140335     0.013392519166    -0.001552161588
      11       -0.001616592048     0.008100903002    -0.021840610044
      12       -0.005003146572    -0.009511429205    -0.000500396450
      13       -0.004549558018    -0.000702090836    -0.007199679366
      14        0.002599772217    -0.015638505856    -0.019400360567


*** tstop() called on sb103.cluster at Fri Sep 15 09:31:00 2023
Module time:
	user time   =       2.09 seconds =       0.03 minutes
	system time =       0.19 seconds =       0.00 minutes
	total time  =          1 seconds =       0.02 minutes
Total time:
	user time   =       7.82 seconds =       0.13 minutes
	system time =       0.81 seconds =       0.01 minutes
	total time  =          3 seconds =       0.05 minutes

    			-----------------------------------------

    			 OPTKING 3.0: for geometry optimizations 

    			     By R.A. King, Bethel University     

    			        with contributions from          

    			    A.V. Copan, J. Cayton, A. Heide      

    			-----------------------------------------

    
	                            ===> Fragment 1 <== 

	 Z (Atomic Numbers)          Masses                          Geom                  
	       8.000000            15.994915         -0.83474110  0.76657628  0.42358600   
	       6.000000            12.000000          1.79967305  1.01754748 -0.06152046   
	       6.000000            12.000000          2.16180939  2.33021103 -2.59720876   
	       8.000000            15.994915          4.66210124  3.35103364 -2.65780470   
	       6.000000            12.000000          1.86243859  0.48621643 -4.79015177   
	       8.000000            15.994915         -0.74974062  0.07767584 -5.28924480   
	       1.000000             1.007825         -1.00659471 -0.07457079  2.04843314   
	       1.000000             1.007825          2.62715857  2.12270224  1.47992880   
	       1.000000             1.007825          2.63096253 -0.87631111 -0.07790175   
	       1.000000             1.007825          0.86018686  3.93031391 -2.78163293   
	       1.000000             1.007825          4.84262459  4.17214033 -4.28357743   
	       1.000000             1.007825          2.72749377 -1.34455408 -4.36886891   
	       1.000000             1.007825          2.70776933  1.24183324 -6.52020131   
	       1.000000             1.007825         -0.83794567 -1.10111979 -6.69057295   

	 - Coordinate -           - BOHR/RAD -       - ANG/DEG -
	 H(1,8)           =         3.865189           2.045370
	 H(1,9)           =         3.868032           2.046874
	 H(4,10)          =         3.847785           2.036160
	 H(6,12)          =         3.867944           2.046828
	 H(6,13)          =         3.850311           2.037497
	 R(1,2)           =         2.690437           1.423718
	 R(1,7)           =         1.837713           0.972476
	 R(2,3)           =         2.878184           1.523069
	 R(2,8)           =         2.069339           1.095047
	 R(2,9)           =         2.068335           1.094516
	 R(3,4)           =         2.701335           1.429485
	 R(3,5)           =         2.880788           1.524447
	 R(3,10)          =         2.070885           1.095865
	 R(4,11)          =         1.830285           0.968545
	 R(5,6)           =         2.690628           1.423819
	 R(5,12)          =         2.068217           1.094453
	 R(5,13)          =         2.068481           1.094593
	 R(6,14)          =         1.833319           0.970151
	 B(1,2,3)         =         1.901381         108.941128
	 B(1,2,8)         =         1.882899         107.882144
	 B(1,2,9)         =         1.885524         108.032573
	 B(2,1,7)         =         1.868878         107.078802
	 B(2,3,4)         =         1.884483         107.972939
	 B(2,3,5)         =         1.945114         111.446835
	 B(2,3,10)        =         1.930256         110.595500
	 B(3,2,8)         =         1.941610         111.246046
	 B(3,2,9)         =         1.939122         111.103531
	 B(3,4,11)        =         1.855370         106.304889
	 B(3,5,6)         =         1.916953         109.833301
	 B(3,5,12)        =         1.947749         111.597817
	 B(3,5,13)        =         1.939477         111.123820
	 B(4,3,5)         =         1.897583         108.723483
	 B(4,3,10)        =         1.862696         106.724607
	 B(5,3,10)        =         1.940646         111.190826
	 B(5,6,14)        =         1.860975         106.626041
	 B(6,5,12)        =         1.885405         108.025725
	 B(6,5,13)        =         1.872429         107.282278
	 B(8,2,9)         =         1.911546         109.523508
	 B(12,5,13)       =         1.899479         108.832111
	 D(1,2,3,4)       =         2.792527         159.999999
	 D(1,2,3,5)       =        -1.407760         -80.658726
	 D(1,2,3,10)      =         0.760450          43.570591
	 D(2,3,4,11)      =         3.141593         180.000000
	 D(2,3,5,6)       =         1.396263          79.999995
	 D(2,3,5,12)      =        -0.694191         -39.774211
	 D(2,3,5,13)      =        -2.817853        -161.451070
	 D(3,2,1,7)       =         3.141593         180.000000
	 D(3,5,6,14)      =         3.141593         180.000000
	 D(4,3,2,8)       =         0.719091          41.200907
	 D(4,3,2,9)       =        -1.415496         -81.101923
	 D(4,3,5,6)       =        -2.811824        -161.105626
	 D(4,3,5,12)      =         1.380907          79.120168
	 D(4,3,5,13)      =        -0.742754         -42.556691
	 D(5,3,2,8)       =         2.801990         160.542183
	 D(5,3,2,9)       =         0.667403          38.239353
	 D(5,3,4,11)      =         1.028825          58.947351
	 D(6,5,3,10)      =        -0.766081         -43.893181
	 D(7,1,2,8)       =        -1.031780         -59.116632
	 D(7,1,2,9)       =         1.033225          59.199419
	 D(8,2,3,10)      =        -1.312985         -75.228500
	 D(9,2,3,10)      =         2.835613         162.468670
	 D(10,3,4,11)     =        -1.066005         -61.077613
	 D(10,3,5,12)     =        -2.856535        -163.667387
	 D(10,3,5,13)     =         1.302989          74.655754
	 D(12,5,6,14)     =        -1.013531         -58.071027
	 D(13,5,6,14)     =         1.031608          59.106768


	        --- Internal Coordinate Step in ANG or DEG, aJ/ANG or AJ/DEG ---
	-------------------------------------------------------------------------------
	           Coordinate      Previous         Force          Change          New 
	           ----------      --------        ------          ------        ------
	               H(1,8)       2.04537       -0.00756        0.01583       2.06120
	               H(1,9)       2.04687       -0.01068        0.01655       2.06343
	              H(4,10)       2.03616       -0.00848        0.02537       2.06153
	              H(6,12)       2.04683       -0.00911        0.01719       2.06402
	              H(6,13)       2.03750       -0.00462        0.01672       2.05421
	               R(1,2)       1.42372       -0.06765       -0.01463       1.40909
	               R(1,7)       0.97248       -0.22498       -0.02667       0.94581
	               R(2,3)       1.52307       -0.03197       -0.00654       1.51653
	               R(2,8)       1.09505       -0.05322       -0.01182       1.08322
	               R(2,9)       1.09452       -0.04277       -0.01045       1.08407
	               R(3,4)       1.42948       -0.06995       -0.01332       1.41616
	               R(3,5)       1.52445       -0.00234       -0.00048       1.52397
	              R(3,10)       1.09586       -0.06622       -0.01491       1.08096
	              R(4,11)       0.96854       -0.18846       -0.02201       0.94653
	               R(5,6)       1.42382       -0.07086       -0.01474       1.40908
	              R(5,12)       1.09445       -0.04446       -0.01059       1.08387
	              R(5,13)       1.09459       -0.02874       -0.00714       1.08745
	              R(6,14)       0.97015       -0.20398       -0.02397       0.94618
	             B(1,2,3)     108.94113       -0.00045       -0.60893     108.33220
	             B(1,2,8)     107.88214        0.00061        3.03061     110.91276
	             B(1,2,9)     108.03257        0.00054        3.01082     111.04339
	             B(2,1,7)     107.07880        0.00033        1.44771     108.52651
	             B(2,3,4)     107.97294       -0.00085       -3.11296     104.85998
	             B(2,3,5)     111.44684        0.00107        3.29992     114.74676
	            B(2,3,10)     110.59550       -0.00037       -2.47457     108.12093
	             B(3,2,8)     111.24605       -0.00044       -2.98047     108.26558
	             B(3,2,9)     111.10353       -0.00018       -1.27614     109.82739
	            B(3,4,11)     106.30489        0.00063        2.75535     109.06023
	             B(3,5,6)     109.83330       -0.00038       -0.40853     109.42477
	            B(3,5,12)     111.59782       -0.00033       -2.07389     109.52393
	            B(3,5,13)     111.12382       -0.00033       -2.27402     108.84980
	             B(4,3,5)     108.72348       -0.00001        0.80282     109.52630
	            B(4,3,10)     106.72461        0.00067        3.85007     110.57467
	            B(5,3,10)     111.19083       -0.00054       -2.24642     108.94440
	            B(5,6,14)     106.62604        0.00053        2.30102     108.92706
	            B(6,5,12)     108.02572        0.00058        3.08023     111.10596
	            B(6,5,13)     107.28228        0.00052        2.78944     110.07171
	             B(8,2,9)     109.52351       -0.00003       -1.10621     108.41729
	           B(12,5,13)     108.83211       -0.00000       -1.01073     107.82138
	           D(1,2,3,4)     160.00000        0.00001        1.10246     161.10246
	           D(1,2,3,5)     -80.65873        0.00009        1.96474     -78.69398
	          D(1,2,3,10)      43.57059       -0.00010       -0.46305      43.10754
	          D(2,3,4,11)     180.00000        0.00048        4.39296     184.39296
	           D(2,3,5,6)      80.00000        0.00010       -1.74213      78.25786
	          D(2,3,5,12)     -39.77421       -0.00017       -3.98448     -43.75869
	          D(2,3,5,13)    -161.45107        0.00030        0.03526    -161.41581
	           D(3,2,1,7)     180.00000        0.00008        0.17875     180.17875
	          D(3,5,6,14)     180.00000        0.00001        1.04646     181.04646
	           D(4,3,2,8)      41.20091       -0.00019       -0.45250      40.74840
	           D(4,3,2,9)     -81.10192        0.00028        3.64265     -77.45927
	           D(4,3,5,6)    -161.10563       -0.00031       -3.05001    -164.15564
	          D(4,3,5,12)      79.12017       -0.00057       -5.29236      73.82781
	          D(4,3,5,13)     -42.55669       -0.00011       -1.27262     -43.82932
	           D(5,3,2,8)     160.54218       -0.00011        0.40978     160.95197
	           D(5,3,2,9)      38.23935        0.00036        4.50494      42.74429
	          D(5,3,4,11)      58.94735       -0.00030        1.83011      60.77746
	          D(6,5,3,10)     -43.89318        0.00019        0.79865     -43.09453
	           D(7,1,2,8)     -59.11663       -0.00035       -2.01432     -61.13095
	           D(7,1,2,9)      59.19942        0.00024        0.29328      59.49270
	          D(8,2,3,10)     -75.22850       -0.00030       -2.01801     -77.24651
	          D(9,2,3,10)     162.46867        0.00017        2.07715     164.54582
	         D(10,3,4,11)     -61.07761       -0.00003        1.78563     -59.29198
	         D(10,3,5,12)    -163.66739       -0.00007       -1.44370    -165.11108
	         D(10,3,5,13)      74.65575        0.00039        2.57604      77.23179
	         D(12,5,6,14)     -58.07103       -0.00026        0.17973     -57.89130
	         D(13,5,6,14)      59.10677        0.00031        2.36267      61.46944
	-------------------------------------------------------------------------------

	                                 ==> Convergence Check <==                                  
    
	Measures of convergence in internal coordinates in au.
    
	Criteria marked as inactive (o), active & met (*), and active & unmet ( ).

	----------------------------------------------------------------------------------------------
	   Step    Total Energy     Delta E     Max Force     RMS Force      Max Disp      RMS Disp   
	----------------------------------------------------------------------------------------------
	  Convergence Criteria     1.00e-06 *    3.00e-04 *             o    1.20e-03 *             o
	----------------------------------------------------------------------------------------------
	     1    -342.79360726   -3.43e+02      2.73e-02      7.35e-03 o    9.24e-02      3.89e-02 o  ~
	----------------------------------------------------------------------------------------------

Next Geometry in Ang 
	Fragment 1 (Ang)

	    O  -0.4295395785   0.3990028497   0.2158670926
	    C   0.9510004006   0.5453706800  -0.0254066961
	    C   1.1315994209   1.1938475342  -1.3843479978
	    O   2.4510915268   1.7078682328  -1.3690064898
	    C   0.9666240410   0.2493473995  -2.5689042667
	    O  -0.4048511883   0.0259095936  -2.8026254622
	    H  -0.5454162178  -0.0027961632   1.0642109034
	    H   1.4079993605   1.1853102772   0.7195777716
	    H   1.4534231401  -0.4150541038  -0.0066023292
	    H   0.4124135577   1.9960336736  -1.4723188138
	    H   2.6050854977   2.1880683133  -2.1700176806
	    H   1.4844752989  -0.6808046772  -2.3653924421
	    H   1.4257776470   0.7010929633  -3.4450602670
	    H  -0.4987861576  -0.5736050629  -3.5285867630


    Structure for next step:
    Molecular point group: c1
    Full point group: C1

    Geometry (in Angstrom), charge = 0, multiplicity = 1:

    O           -0.429539578476     0.399002849668     0.215867092566
    C            0.951000400578     0.545370679976    -0.025406696117
    C            1.131599420911     1.193847534151    -1.384347997818
    O            2.451091526753     1.707868232808    -1.369006489800
    C            0.966624040970     0.249347399479    -2.568904266652
    O           -0.404851188266     0.025909593572    -2.802625462197
    H           -0.545416217812    -0.002796163207     1.064210903363
    H            1.407999360539     1.185310277231     0.719577771563
    H            1.453423140101    -0.415054103752    -0.006602329243
    H            0.412413557710     1.996033673584    -1.472318813834
    H            2.605085497690     2.188068313275    -2.170017680644
    H            1.484475298902    -0.680804677219    -2.365392442111
    H            1.425777647042     0.701092963300    -3.445060267042
    H           -0.498786157642    -0.573605062865    -3.528586763034


Scratch directory: /mnt/storage/nobackup/nca121/scratch_dir/
gradient() will perform analytic gradient computation.
   => Libint2 <=

    Primary   basis highest AM E, G, H:  5, 4, 3
    Auxiliary basis highest AM E, G, H:  6, 5, 4
    Onebody   basis highest AM E, G, H:  6, 5, 4
    Solid Harmonics ordering:            gaussian

*** tstart() called on sb103.cluster
*** at Fri Sep 15 09:31:00 2023

   => Loading Basis Set <=

    Name: 6-31G*
    Role: ORBITAL
    Keyword: BASIS
    atoms 1, 4, 6 entry O          line   145 file /mnt/nfs/home/nca121/.conda/envs/p4env/share/psi4/basis/6-31gs.gbs 
    atoms 2-3, 5  entry C          line   111 file /mnt/nfs/home/nca121/.conda/envs/p4env/share/psi4/basis/6-31gs.gbs 
    atoms 7-14    entry H          line    44 file /mnt/nfs/home/nca121/.conda/envs/p4env/share/psi4/basis/6-31gs.gbs 


         ---------------------------------------------------------
                                   SCF
               by Justin Turney, Rob Parrish, Andy Simmonett
                          and Daniel G. A. Smith
                              RHF Reference
                        4 Threads,    500 MiB Core
         ---------------------------------------------------------

  ==> Geometry <==

    Molecular point group: c1
    Full point group: C1

    Geometry (in Angstrom), charge = 0, multiplicity = 1:

       Center              X                  Y                   Z               Mass       
    ------------   -----------------  -----------------  -----------------  -----------------
         O           -0.429539578476     0.399002849668     0.215867092566    15.994914619570
         C            0.951000400578     0.545370679976    -0.025406696117    12.000000000000
         C            1.131599420911     1.193847534151    -1.384347997818    12.000000000000
         O            2.451091526753     1.707868232808    -1.369006489800    15.994914619570
         C            0.966624040970     0.249347399479    -2.568904266652    12.000000000000
         O           -0.404851188266     0.025909593572    -2.802625462197    15.994914619570
         H           -0.545416217812    -0.002796163207     1.064210903363     1.007825032230
         H            1.407999360539     1.185310277231     0.719577771563     1.007825032230
         H            1.453423140101    -0.415054103752    -0.006602329243     1.007825032230
         H            0.412413557710     1.996033673584    -1.472318813834     1.007825032230
         H            2.605085497690     2.188068313275    -2.170017680644     1.007825032230
         H            1.484475298902    -0.680804677219    -2.365392442111     1.007825032230
         H            1.425777647042     0.701092963300    -3.445060267042     1.007825032230
         H           -0.498786157642    -0.573605062865    -3.528586763034     1.007825032230

  Running in c1 symmetry.

  Rotational constants: A =      0.11389  B =      0.04198  C =      0.03243 [cm^-1]
  Rotational constants: A =   3414.48389  B =   1258.67514  C =    972.09127 [MHz]
  Nuclear repulsion =  263.621388829426905

  Charge       = 0
  Multiplicity = 1
  Electrons    = 50
  Nalpha       = 25
  Nbeta        = 25

  ==> Algorithm <==

  SCF Algorithm Type is DF.
  DIIS enabled.
  MOM disabled.
  Fractional occupation disabled.
  Guess Type is READ.
  Energy threshold   = 1.00e-08
  Density threshold  = 1.00e-08
  Integral threshold = 1.00e-12

  ==> Primary Basis <==

  Basis Set: 6-31G*
    Blend: 6-31G*
    Number of shells: 52
    Number of basis functions: 106
    Number of Cartesian functions: 106
    Spherical Harmonics?: false
    Max angular momentum: 2

   => Loading Basis Set <=

    Name: (6-31G* AUX)
    Role: JKFIT
    Keyword: DF_BASIS_SCF
    atoms 1, 4, 6 entry O          line   221 file /mnt/nfs/home/nca121/.conda/envs/p4env/share/psi4/basis/cc-pvdz-jkfit.gbs 
    atoms 2-3, 5  entry C          line   121 file /mnt/nfs/home/nca121/.conda/envs/p4env/share/psi4/basis/cc-pvdz-jkfit.gbs 
    atoms 7-14    entry H          line    51 file /mnt/nfs/home/nca121/.conda/envs/p4env/share/psi4/basis/cc-pvdz-jkfit.gbs 

   => Loading Basis Set <=

    Name: 6-31G*
    Role: ORBITAL
    Keyword: BASIS
    atoms 1, 4, 6 entry O          line   145 file /mnt/nfs/home/nca121/.conda/envs/p4env/share/psi4/basis/6-31gs.gbs 
    atoms 2-3, 5  entry C          line   111 file /mnt/nfs/home/nca121/.conda/envs/p4env/share/psi4/basis/6-31gs.gbs 
    atoms 7-14    entry H          line    44 file /mnt/nfs/home/nca121/.conda/envs/p4env/share/psi4/basis/6-31gs.gbs 

  Reading orbitals from file /mnt/storage/nobackup/nca121/scratch_dir/out.mol.29944.180.npy, no projection.

  ==> Integral Setup <==

  DFHelper Memory: AOs need 0.063 GiB; user supplied 0.366 GiB. 
  Using in-core AOs.

  ==> MemDFJK: Density-Fitted J/K Matrices <==

    J tasked:                   Yes
    K tasked:                   Yes
    wK tasked:                   No
    OpenMP threads:               4
    Memory [MiB]:               375
    Algorithm:                 Core
    Schwarz Cutoff:           1E-12
    Mask sparsity (%):       1.2460
    Fitting Condition:        1E-10

   => Auxiliary Basis Set <=

  Basis Set: (6-31G* AUX)
    Blend: CC-PVDZ-JKFIT
    Number of shells: 216
    Number of basis functions: 686
    Number of Cartesian functions: 686
    Spherical Harmonics?: false
    Max angular momentum: 3

  Minimum eigenvalue in the overlap matrix is 3.2448070925E-03.
  Reciprocal condition number of the overlap matrix is 4.5008058002E-04.
    Using symmetric orthogonalization.

  ==> Pre-Iterations <==

  SCF Guess: Orbitals guess was supplied from a previous computation.

   -------------------------------------------------------
    Irrep   Nso     Nmo     Nalpha   Nbeta   Ndocc  Nsocc
   -------------------------------------------------------
     A        106     106      25      25      25       0
   -------------------------------------------------------
    Total     106     106      25      25      25       0
   -------------------------------------------------------

  ==> Iterations <==

                           Total Energy        Delta E     RMS |[F,P]|

   @DF-RHF iter   0:  -342.87526188143016   -3.42875e+02   1.35758e-03 
   @DF-RHF iter   1:  -342.80009512111116    7.51668e-02   2.39275e-04 ADIIS/DIIS
   @DF-RHF iter   2:  -342.80060683911688   -5.11718e-04   8.95578e-05 DIIS
   @DF-RHF iter   3:  -342.80068163265321   -7.47935e-05   4.07783e-05 DIIS
   @DF-RHF iter   4:  -342.80069688710023   -1.52544e-05   9.77761e-06 DIIS
   @DF-RHF iter   5:  -342.80069796076731   -1.07367e-06   3.20548e-06 DIIS
   @DF-RHF iter   6:  -342.80069810125832   -1.40491e-07   1.02335e-06 DIIS
   @DF-RHF iter   7:  -342.80069811581450   -1.45562e-08   2.67790e-07 DIIS
   @DF-RHF iter   8:  -342.80069811700724   -1.19275e-09   7.82634e-08 DIIS
   @DF-RHF iter   9:  -342.80069811706460   -5.73550e-11   2.77715e-08 DIIS
   @DF-RHF iter  10:  -342.80069811707347   -8.86757e-12   6.38009e-09 DIIS
  Energy and wave function converged.


  ==> Post-Iterations <==

    Orbital Energies [Eh]
    ---------------------

    Doubly Occupied:                                                      

       1A    -20.562044     2A    -20.555583     3A    -20.550150  
       4A    -11.273778     5A    -11.273097     6A    -11.265185  
       7A     -1.376260     8A     -1.357249     9A     -1.353185  
      10A     -1.024575    11A     -0.922670    12A     -0.803422  
      13A     -0.730843    14A     -0.687737    15A     -0.673092  
      16A     -0.657784    17A     -0.618030    18A     -0.581917  
      19A     -0.566357    20A     -0.528296    21A     -0.521109  
      22A     -0.473050    23A     -0.451087    24A     -0.436106  
      25A     -0.428335  

    Virtual:                                                              

      26A      0.215333    27A      0.222969    28A      0.242173  
      29A      0.280878    30A      0.310866    31A      0.317775  
      32A      0.337918    33A      0.349585    34A      0.408625  
      35A      0.411984    36A      0.421307    37A      0.480205  
      38A      0.507149    39A      0.740462    40A      0.745525  
      41A      0.807300    42A      0.844151    43A      0.859701  
      44A      0.892597    45A      0.952462    46A      0.980029  
      47A      1.038713    48A      1.064056    49A      1.080150  
      50A      1.104002    51A      1.123741    52A      1.129218  
      53A      1.149150    54A      1.184747    55A      1.198043  
      56A      1.226303    57A      1.250681    58A      1.263267  
      59A      1.278292    60A      1.287529    61A      1.334060  
      62A      1.344160    63A      1.388785    64A      1.456994  
      65A      1.487833    66A      1.571891    67A      1.691539  
      68A      1.740380    69A      1.741303    70A      1.797822  
      71A      1.916142    72A      1.929251    73A      1.947212  
      74A      1.993785    75A      2.036306    76A      2.051414  
      77A      2.079667    78A      2.156162    79A      2.222602  
      80A      2.232786    81A      2.284471    82A      2.387522  
      83A      2.407524    84A      2.426136    85A      2.438581  
      86A      2.487469    87A      2.565663    88A      2.670385  
      89A      2.710597    90A      2.752684    91A      2.816137  
      92A      2.850196    93A      2.878984    94A      2.890002  
      95A      2.927335    96A      3.026202    97A      3.059290  
      98A      3.227311    99A      3.269750   100A      3.331846  
     101A      4.066665   102A      4.277091   103A      4.308470  
     104A      4.622616   105A      4.829737   106A      4.996259  

    Final Occupation by Irrep:
              A 
    DOCC [    25 ]
    NA   [    25 ]
    NB   [    25 ]

  @DF-RHF Final Energy:  -342.80069811707347

   => Energetics <=

    Nuclear Repulsion Energy =            263.6213888294269054
    One-Electron Energy =                -993.5022954536498219
    Two-Electron Energy =                 387.0802085071494503
    Total Energy =                       -342.8006981170734662

Computation Completed


Properties will be evaluated at   0.000000,   0.000000,   0.000000 [a0]

Properties computed using the SCF density matrix


 Multipole Moments:

 ------------------------------------------------------------------------------------
     Multipole            Electronic (a.u.)      Nuclear  (a.u.)        Total (a.u.)
 ------------------------------------------------------------------------------------

 L = 1.  Multiply by 2.5417464519 to convert [e a0] to [Debye]
 Dipole X            :        -73.1533303           73.6500374            0.4967072
 Dipole Y            :        -63.5047828           63.1015162           -0.4032667
 Dipole Z            :        125.6545554         -126.0868021           -0.4322467
 Magnitude           :                                                    0.7721265

 ------------------------------------------------------------------------------------

*** tstop() called on sb103.cluster at Fri Sep 15 09:31:01 2023
Module time:
	user time   =       3.25 seconds =       0.05 minutes
	system time =       0.25 seconds =       0.00 minutes
	total time  =          1 seconds =       0.02 minutes
Total time:
	user time   =      12.09 seconds =       0.20 minutes
	system time =       1.15 seconds =       0.02 minutes
	total time  =          4 seconds =       0.07 minutes

*** tstart() called on sb103.cluster
*** at Fri Sep 15 09:31:01 2023


         ------------------------------------------------------------
                                   SCF GRAD                          
                          Rob Parrish, Justin Turney,                
                       Andy Simmonett, and Alex Sokolov              
         ------------------------------------------------------------

  ==> Geometry <==

    Molecular point group: c1
    Full point group: C1

    Geometry (in Angstrom), charge = 0, multiplicity = 1:

       Center              X                  Y                   Z               Mass       
    ------------   -----------------  -----------------  -----------------  -----------------
         O           -0.429539578476     0.399002849668     0.215867092566    15.994914619570
         C            0.951000400578     0.545370679976    -0.025406696117    12.000000000000
         C            1.131599420911     1.193847534151    -1.384347997818    12.000000000000
         O            2.451091526753     1.707868232808    -1.369006489800    15.994914619570
         C            0.966624040970     0.249347399479    -2.568904266652    12.000000000000
         O           -0.404851188266     0.025909593572    -2.802625462197    15.994914619570
         H           -0.545416217812    -0.002796163207     1.064210903363     1.007825032230
         H            1.407999360539     1.185310277231     0.719577771563     1.007825032230
         H            1.453423140101    -0.415054103752    -0.006602329243     1.007825032230
         H            0.412413557710     1.996033673584    -1.472318813834     1.007825032230
         H            2.605085497690     2.188068313275    -2.170017680644     1.007825032230
         H            1.484475298902    -0.680804677219    -2.365392442111     1.007825032230
         H            1.425777647042     0.701092963300    -3.445060267042     1.007825032230
         H           -0.498786157642    -0.573605062865    -3.528586763034     1.007825032230

  Nuclear repulsion =  263.621388829426905

  ==> Basis Set <==

  Basis Set: 6-31G*
    Blend: 6-31G*
    Number of shells: 52
    Number of basis functions: 106
    Number of Cartesian functions: 106
    Spherical Harmonics?: false
    Max angular momentum: 2

  ==> DFJKGrad: Density-Fitted SCF Gradients <==

    Gradient:                    1
    J tasked:                  Yes
    K tasked:                  Yes
    wK tasked:                  No
    OpenMP threads:              4
    Integrals threads:           4
    Memory [MiB]:              375
    Schwarz Cutoff:          1E-12
    Fitting Condition:       1E-10

   => Auxiliary Basis Set <=

  Basis Set: (6-31G* AUX)
    Blend: CC-PVDZ-JKFIT
    Number of shells: 216
    Number of basis functions: 686
    Number of Cartesian functions: 686
    Spherical Harmonics?: false
    Max angular momentum: 3


  -Total Gradient:
     Atom            X                  Y                   Z
    ------   -----------------  -----------------  -----------------
       1       -0.006986369465     0.000642525656    -0.000842621622
       2        0.011487765781     0.000355587165    -0.000315105946
       3       -0.007870643229    -0.003435797218    -0.000873424774
       4        0.003460169261     0.003940302741     0.002549990659
       5        0.010572274553     0.000940583650     0.000503725660
       6       -0.007971621672    -0.001475257041    -0.001042295608
       7        0.001600695542     0.000504832074    -0.000464007891
       8       -0.000884022122    -0.001190099471    -0.000289479382
       9       -0.002013735944     0.001752922499    -0.000950639343
      10        0.002400966331    -0.001910413757     0.000819346963
      11       -0.001188957163    -0.001229143912    -0.000280978071
      12       -0.002209201878     0.001710360571     0.000409772593
      13       -0.001196658732    -0.001135695076     0.000867838303
      14        0.000799338738     0.000529292118    -0.000092121544


*** tstop() called on sb103.cluster at Fri Sep 15 09:31:01 2023
Module time:
	user time   =       2.19 seconds =       0.04 minutes
	system time =       0.11 seconds =       0.00 minutes
	total time  =          0 seconds =       0.00 minutes
Total time:
	user time   =      14.28 seconds =       0.24 minutes
	system time =       1.26 seconds =       0.02 minutes
	total time  =          4 seconds =       0.07 minutes

    			-----------------------------------------

    			 OPTKING 3.0: for geometry optimizations 

    			     By R.A. King, Bethel University     

    			        with contributions from          

    			    A.V. Copan, J. Cayton, A. Heide      

    			-----------------------------------------

    
	                            ===> Fragment 1 <== 

	 Z (Atomic Numbers)          Masses                          Geom                  
	       8.000000            15.994915         -0.81171216  0.75400611  0.40792968   
	       6.000000            12.000000          1.79713030  1.03060122 -0.04801170   
	       6.000000            12.000000          2.13841299  2.25604488 -2.61603858   
	       8.000000            15.994915          4.63189169  3.22740322 -2.58704733   
	       6.000000            12.000000          1.82665470  0.47119830 -4.85452551   
	       8.000000            15.994915         -0.76505787  0.04896204 -5.29619456   
	       1.000000             1.007825         -1.03068728 -0.00528398  2.01106715   
	       1.000000             1.007825          2.66073318  2.23991180  1.35980491   
	       1.000000             1.007825          2.74657168 -0.78433858 -0.01247659   
	       1.000000             1.007825          0.77934867  3.77195698 -2.78227933   
	       1.000000             1.007825          4.92289812  4.13484986 -4.10073910   
	       1.000000             1.007825          2.80525175 -1.28653438 -4.46994389   
	       1.000000             1.007825          2.69432927  1.32487369 -6.51022039   
	       1.000000             1.007825         -0.94256923 -1.08395647 -6.66806259   

	 - Coordinate -           - BOHR/RAD -       - ANG/DEG -
	 H(1,8)           =         3.895107           2.061202
	 H(1,9)           =         3.899311           2.063427
	 H(4,10)          =         3.895734           2.061534
	 H(6,12)          =         3.900430           2.064018
	 H(6,13)          =         3.881903           2.054214
	 R(1,2)           =         2.662789           1.409087
	 R(1,7)           =         1.787322           0.945810
	 R(2,3)           =         2.865824           1.516529
	 R(2,8)           =         2.046995           1.083223
	 R(2,9)           =         2.048587           1.084065
	 R(3,4)           =         2.676156           1.416161
	 R(3,5)           =         2.879877           1.523966
	 R(3,10)          =         2.042714           1.080958
	 R(4,11)          =         1.788689           0.946533
	 R(5,6)           =         2.662767           1.409076
	 R(5,12)          =         2.048214           1.083868
	 R(5,13)          =         2.054981           1.087449
	 R(6,14)          =         1.788026           0.946183
	 B(1,2,3)         =         1.890754         108.332196
	 B(1,2,8)         =         1.935793         110.912755
	 B(1,2,9)         =         1.938073         111.043395
	 B(2,1,7)         =         1.894145         108.526509
	 B(2,3,4)         =         1.830152         104.859983
	 B(2,3,5)         =         2.002709         114.746759
	 B(2,3,10)        =         1.887066         108.120926
	 B(3,2,8)         =         1.889591         108.265576
	 B(3,2,9)         =         1.916850         109.827393
	 B(3,4,11)        =         1.903460         109.060234
	 B(3,5,6)         =         1.909822         109.424767
	 B(3,5,12)        =         1.911553         109.523927
	 B(3,5,13)        =         1.899787         108.849799
	 B(4,3,5)         =         1.911595         109.526299
	 B(4,3,10)        =         1.929892         110.574674
	 B(5,3,10)        =         1.901439         108.944403
	 B(5,6,14)        =         1.901136         108.927061
	 B(6,5,12)        =         1.939165         111.105959
	 B(6,5,13)        =         1.921114         110.071714
	 B(8,2,9)         =         1.892239         108.417294
	 B(12,5,13)       =         1.881838         107.821381
	 D(1,2,3,4)       =         2.811768         161.102455
	 D(1,2,3,5)       =        -1.373469         -78.693981
	 D(1,2,3,10)      =         0.752369          43.107542
	 D(2,3,4,11)      =         3.218264         184.392962
	 D(2,3,5,6)       =         1.365857          78.257863
	 D(2,3,5,12)      =        -0.763733         -43.758688
	 D(2,3,5,13)      =        -2.817237        -161.415814
	 D(3,2,1,7)       =         3.144712         180.178753
	 D(3,5,6,14)      =         3.159857         181.046457
	 D(4,3,2,8)       =         0.711194          40.748404
	 D(4,3,2,9)       =        -1.351919         -77.459270
	 D(4,3,5,6)       =        -2.865056        -164.155639
	 D(4,3,5,12)      =         1.288538          73.827810
	 D(4,3,5,13)      =        -0.764966         -43.829316
	 D(5,3,2,8)       =         2.809142         160.951967
	 D(5,3,2,9)       =         0.746029          42.744293
	 D(5,3,4,11)      =         1.060767          60.777464
	 D(6,5,3,10)      =        -0.752141         -43.094531
	 D(7,1,2,8)       =        -1.066936         -61.130947
	 D(7,1,2,9)       =         1.038344          59.492702
	 D(8,2,3,10)      =        -1.348206         -77.246509
	 D(9,2,3,10)      =         2.871866         164.545816
	 D(10,3,4,11)     =        -1.034840         -59.291978
	 D(10,3,5,12)     =        -2.881732        -165.111082
	 D(10,3,5,13)     =         1.347949          77.231792
	 D(12,5,6,14)     =        -1.010394         -57.891301
	 D(13,5,6,14)     =         1.072844          61.469442


	        --- Internal Coordinate Step in ANG or DEG, aJ/ANG or AJ/DEG ---
	-------------------------------------------------------------------------------
	           Coordinate      Previous         Force          Change          New 
	           ----------      --------        ------          ------        ------
	               H(1,8)       2.06120       -0.00787       -0.00091       2.06029
	               H(1,9)       2.06343       -0.00850       -0.00200       2.06143
	              H(4,10)       2.06153        0.00241        0.00823       2.06977
	              H(6,12)       2.06402       -0.00862        0.00002       2.06404
	              H(6,13)       2.05421       -0.00897       -0.00135       2.05287
	               R(1,2)       1.40909       -0.02638       -0.00703       1.40205
	               R(1,7)       0.94581        0.00681       -0.00037       0.94544
	               R(2,3)       1.51653        0.03155        0.00679       1.52332
	               R(2,8)       1.08322        0.01656        0.00161       1.08483
	               R(2,9)       1.08407        0.02717        0.00378       1.08785
	               R(3,4)       1.41616       -0.02785       -0.00528       1.41088
	               R(3,5)       1.52397        0.00704        0.00157       1.52553
	              R(3,10)       1.08096        0.02354        0.00389       1.08484
	              R(4,11)       0.94653        0.00477       -0.00042       0.94611
	               R(5,6)       1.40908       -0.04500       -0.01015       1.39893
	              R(5,12)       1.08387        0.02680        0.00360       1.08747
	              R(5,13)       1.08745        0.02067        0.00259       1.09004
	              R(6,14)       0.94618        0.00283       -0.00076       0.94543
	             B(1,2,3)     108.33220        0.00022        1.09924     109.43144
	             B(1,2,8)     110.91276        0.00002        0.33036     111.24312
	             B(1,2,9)     111.04339       -0.00005        0.10033     111.14372
	             B(2,1,7)     108.52651        0.00021        1.07828     109.60479
	             B(2,3,4)     104.85998        0.00007        0.23671     105.09669
	             B(2,3,5)     114.74676        0.00004        0.14577     114.89253
	            B(2,3,10)     108.12093       -0.00003       -0.04196     108.07896
	             B(3,2,8)     108.26558       -0.00015       -0.91335     107.35223
	             B(3,2,9)     109.82739       -0.00003       -0.05578     109.77162
	            B(3,4,11)     109.06023        0.00020        1.08900     110.14923
	             B(3,5,6)     109.42477       -0.00007        0.01639     109.44115
	            B(3,5,12)     109.52393        0.00001        0.07569     109.59962
	            B(3,5,13)     108.84980       -0.00008       -0.62398     108.22582
	             B(4,3,5)     109.52630       -0.00012       -0.65624     108.87006
	            B(4,3,10)     110.57467        0.00006        0.81541     111.39008
	            B(5,3,10)     108.94440       -0.00001       -0.42150     108.52290
	            B(5,6,14)     108.92706        0.00011        0.61982     109.54688
	            B(6,5,12)     111.10596        0.00007        0.50637     111.61232
	            B(6,5,13)     110.07171        0.00010        0.44850     110.52022
	             B(8,2,9)     108.41729       -0.00001       -0.60739     107.80991
	           B(12,5,13)     107.82138       -0.00004       -0.45844     107.36294
	           D(1,2,3,4)     161.10246        0.00009        7.05317     168.15562
	           D(1,2,3,5)     -78.69398        0.00001        6.48419     -72.20979
	          D(1,2,3,10)      43.10754       -0.00001        6.00729      49.11483
	          D(2,3,4,11)     184.39296        0.00003        8.94811     193.34107
	           D(2,3,5,6)      78.25786       -0.00003       -4.18212      74.07574
	          D(2,3,5,12)     -43.75869       -0.00008       -4.86962     -48.62830
	          D(2,3,5,13)    -161.41581        0.00001       -4.00490    -165.42071
	           D(3,2,1,7)     180.17875        0.00003       -1.85079     178.32797
	          D(3,5,6,14)     181.04646       -0.00001        4.04120     185.08766
	           D(4,3,2,8)      40.74840        0.00003        6.55942      47.30783
	           D(4,3,2,9)     -77.45927        0.00015        7.84123     -69.61804
	           D(4,3,5,6)    -164.15564       -0.00000       -4.25035    -168.40599
	          D(4,3,5,12)      73.82781       -0.00005       -4.93784      68.88997
	          D(4,3,5,13)     -43.82932        0.00003       -4.07312     -47.90244
	           D(5,3,2,8)     160.95197       -0.00005        5.99045     166.94241
	           D(5,3,2,9)      42.74429        0.00007        7.27226      50.01655
	          D(5,3,4,11)      60.77746        0.00001        8.99555      69.77301
	          D(6,5,3,10)     -43.09453       -0.00001       -3.91195     -47.00648
	           D(7,1,2,8)     -61.13095       -0.00001       -2.08716     -63.21811
	           D(7,1,2,9)      59.49270       -0.00004       -2.56596      56.92674
	          D(8,2,3,10)     -77.24651       -0.00006        5.51355     -71.73296
	          D(9,2,3,10)     164.54582        0.00006        6.79536     171.34118
	         D(10,3,4,11)     -59.29198        0.00006        9.43201     -49.85997
	         D(10,3,5,12)    -165.11108       -0.00006       -4.59944    -169.71052
	         D(10,3,5,13)      77.23179        0.00002       -3.73472      73.49707
	         D(12,5,6,14)     -57.89130        0.00000        4.47657     -53.41473
	         D(13,5,6,14)      61.46944        0.00007        4.52354      65.99298
	-------------------------------------------------------------------------------

	                                 ==> Convergence Check <==                                  
    
	Measures of convergence in internal coordinates in au.
    
	Criteria marked as inactive (o), active & met (*), and active & unmet ( ).

	----------------------------------------------------------------------------------------------
	   Step    Total Energy     Delta E     Max Force     RMS Force      Max Disp      RMS Disp   
	----------------------------------------------------------------------------------------------
	  Convergence Criteria     1.00e-06 *    3.00e-04 *             o    1.20e-03 *             o
	----------------------------------------------------------------------------------------------
	     2    -342.80069812   -7.09e-03      5.46e-03      1.57e-03 o    1.65e-01      6.44e-02 o  ~
	----------------------------------------------------------------------------------------------

Next Geometry in Ang 
	Fragment 1 (Ang)

	    O  -0.4326558530   0.3425689017   0.1693972825
	    C   0.9377666704   0.5636966673  -0.0275693418
	    C   1.1574266298   1.1972018002  -1.3953885550
	    O   2.4997480281   1.6316017304  -1.3878688398
	    C   0.9495456590   0.2575741527  -2.5790851780
	    O  -0.4190183018   0.0289879187  -2.7573663763
	    H  -0.5695857533  -0.0741513029   1.0069269345
	    H   1.3359888422   1.2482971263   0.7137829264
	    H   1.4991575916  -0.3654976445   0.0420518527
	    H   0.4718817108   2.0322200530  -1.4936728349
	    H   2.6579266134   2.2139322616  -2.1165641512
	    H   1.4916031255  -0.6695913307  -2.4084221268
	    H   1.3773457606   0.7260605573  -3.4654840243
	    H  -0.5462339743  -0.6133093810  -3.4393510091


    Structure for next step:
    Molecular point group: c1
    Full point group: C1

    Geometry (in Angstrom), charge = 0, multiplicity = 1:

    O           -0.432655852961     0.342568901694     0.169397282487
    C            0.937766670434     0.563696667299    -0.027569341765
    C            1.157426629841     1.197201800172    -1.395388554950
    O            2.499748028053     1.631601730385    -1.387868839768
    C            0.949545658968     0.257574152711    -2.579085177991
    O           -0.419018301786     0.028987918696    -2.757366376310
    H           -0.569585753338    -0.074151302906     1.006926934493
    H            1.335988842225     1.248297126269     0.713782926352
    H            1.499157591610    -0.365497644515     0.042051852675
    H            0.471881710791     2.032220052967    -1.493672834915
    H            2.657926613351     2.213932261606    -2.116564151221
    H            1.491603125525    -0.669591330672    -2.408422126761
    H            1.377345760559     0.726060557275    -3.465484024255
    H           -0.546233974273    -0.613309380980    -3.439351009072


Scratch directory: /mnt/storage/nobackup/nca121/scratch_dir/
gradient() will perform analytic gradient computation.
   => Libint2 <=

    Primary   basis highest AM E, G, H:  5, 4, 3
    Auxiliary basis highest AM E, G, H:  6, 5, 4
    Onebody   basis highest AM E, G, H:  6, 5, 4
    Solid Harmonics ordering:            gaussian

*** tstart() called on sb103.cluster
*** at Fri Sep 15 09:31:02 2023

   => Loading Basis Set <=

    Name: 6-31G*
    Role: ORBITAL
    Keyword: BASIS
    atoms 1, 4, 6 entry O          line   145 file /mnt/nfs/home/nca121/.conda/envs/p4env/share/psi4/basis/6-31gs.gbs 
    atoms 2-3, 5  entry C          line   111 file /mnt/nfs/home/nca121/.conda/envs/p4env/share/psi4/basis/6-31gs.gbs 
    atoms 7-14    entry H          line    44 file /mnt/nfs/home/nca121/.conda/envs/p4env/share/psi4/basis/6-31gs.gbs 


         ---------------------------------------------------------
                                   SCF
               by Justin Turney, Rob Parrish, Andy Simmonett
                          and Daniel G. A. Smith
                              RHF Reference
                        4 Threads,    500 MiB Core
         ---------------------------------------------------------

  ==> Geometry <==

    Molecular point group: c1
    Full point group: C1

    Geometry (in Angstrom), charge = 0, multiplicity = 1:

       Center              X                  Y                   Z               Mass       
    ------------   -----------------  -----------------  -----------------  -----------------
         O           -0.432655852961     0.342568901694     0.169397282487    15.994914619570
         C            0.937766670434     0.563696667299    -0.027569341765    12.000000000000
         C            1.157426629841     1.197201800172    -1.395388554950    12.000000000000
         O            2.499748028053     1.631601730385    -1.387868839768    15.994914619570
         C            0.949545658968     0.257574152711    -2.579085177991    12.000000000000
         O           -0.419018301786     0.028987918696    -2.757366376310    15.994914619570
         H           -0.569585753338    -0.074151302906     1.006926934493     1.007825032230
         H            1.335988842225     1.248297126269     0.713782926352     1.007825032230
         H            1.499157591610    -0.365497644515     0.042051852675     1.007825032230
         H            0.471881710791     2.032220052967    -1.493672834915     1.007825032230
         H            2.657926613351     2.213932261606    -2.116564151221     1.007825032230
         H            1.491603125525    -0.669591330672    -2.408422126761     1.007825032230
         H            1.377345760559     0.726060557275    -3.465484024255     1.007825032230
         H           -0.546233974273    -0.613309380980    -3.439351009072     1.007825032230

  Running in c1 symmetry.

  Rotational constants: A =      0.11556  B =      0.04215  C =      0.03252 [cm^-1]
  Rotational constants: A =   3464.25726  B =   1263.50515  C =    975.05066 [MHz]
  Nuclear repulsion =  264.236207239647797

  Charge       = 0
  Multiplicity = 1
  Electrons    = 50
  Nalpha       = 25
  Nbeta        = 25

  ==> Algorithm <==

  SCF Algorithm Type is DF.
  DIIS enabled.
  MOM disabled.
  Fractional occupation disabled.
  Guess Type is READ.
  Energy threshold   = 1.00e-08
  Density threshold  = 1.00e-08
  Integral threshold = 1.00e-12

  ==> Primary Basis <==

  Basis Set: 6-31G*
    Blend: 6-31G*
    Number of shells: 52
    Number of basis functions: 106
    Number of Cartesian functions: 106
    Spherical Harmonics?: false
    Max angular momentum: 2

   => Loading Basis Set <=

    Name: (6-31G* AUX)
    Role: JKFIT
    Keyword: DF_BASIS_SCF
    atoms 1, 4, 6 entry O          line   221 file /mnt/nfs/home/nca121/.conda/envs/p4env/share/psi4/basis/cc-pvdz-jkfit.gbs 
    atoms 2-3, 5  entry C          line   121 file /mnt/nfs/home/nca121/.conda/envs/p4env/share/psi4/basis/cc-pvdz-jkfit.gbs 
    atoms 7-14    entry H          line    51 file /mnt/nfs/home/nca121/.conda/envs/p4env/share/psi4/basis/cc-pvdz-jkfit.gbs 

   => Loading Basis Set <=

    Name: 6-31G*
    Role: ORBITAL
    Keyword: BASIS
    atoms 1, 4, 6 entry O          line   145 file /mnt/nfs/home/nca121/.conda/envs/p4env/share/psi4/basis/6-31gs.gbs 
    atoms 2-3, 5  entry C          line   111 file /mnt/nfs/home/nca121/.conda/envs/p4env/share/psi4/basis/6-31gs.gbs 
    atoms 7-14    entry H          line    44 file /mnt/nfs/home/nca121/.conda/envs/p4env/share/psi4/basis/6-31gs.gbs 

  Reading orbitals from file /mnt/storage/nobackup/nca121/scratch_dir/out.mol.29944.180.npy, no projection.

  ==> Integral Setup <==

  DFHelper Memory: AOs need 0.063 GiB; user supplied 0.366 GiB. 
  Using in-core AOs.

  ==> MemDFJK: Density-Fitted J/K Matrices <==

    J tasked:                   Yes
    K tasked:                   Yes
    wK tasked:                   No
    OpenMP threads:               4
    Memory [MiB]:               375
    Algorithm:                 Core
    Schwarz Cutoff:           1E-12
    Mask sparsity (%):       1.1214
    Fitting Condition:        1E-10

   => Auxiliary Basis Set <=

  Basis Set: (6-31G* AUX)
    Blend: CC-PVDZ-JKFIT
    Number of shells: 216
    Number of basis functions: 686
    Number of Cartesian functions: 686
    Spherical Harmonics?: false
    Max angular momentum: 3

  Minimum eigenvalue in the overlap matrix is 3.2868019214E-03.
  Reciprocal condition number of the overlap matrix is 4.5678725329E-04.
    Using symmetric orthogonalization.

  ==> Pre-Iterations <==

  SCF Guess: Orbitals guess was supplied from a previous computation.

   -------------------------------------------------------
    Irrep   Nso     Nmo     Nalpha   Nbeta   Ndocc  Nsocc
   -------------------------------------------------------
     A        106     106      25      25      25       0
   -------------------------------------------------------
    Total     106     106      25      25      25       0
   -------------------------------------------------------

  ==> Iterations <==

                           Total Energy        Delta E     RMS |[F,P]|

   @DF-RHF iter   0:  -342.78926168185757   -3.42789e+02   1.52188e-03 
   @DF-RHF iter   1:  -342.80045725911191   -1.11956e-02   2.75610e-04 ADIIS/DIIS
   @DF-RHF iter   2:  -342.80128268048867   -8.25421e-04   1.03524e-04 ADIIS/DIIS
   @DF-RHF iter   3:  -342.80143513603662   -1.52456e-04   3.38073e-05 DIIS
   @DF-RHF iter   4:  -342.80144566712443   -1.05311e-05   1.00794e-05 DIIS
   @DF-RHF iter   5:  -342.80144747131624   -1.80419e-06   3.26089e-06 DIIS
   @DF-RHF iter   6:  -342.80144760531442   -1.33998e-07   1.01777e-06 DIIS
   @DF-RHF iter   7:  -342.80144761794543   -1.26310e-08   2.16092e-07 DIIS
   @DF-RHF iter   8:  -342.80144761856980   -6.24368e-10   5.06922e-08 DIIS
   @DF-RHF iter   9:  -342.80144761859714   -2.73417e-11   2.09140e-08 DIIS
   @DF-RHF iter  10:  -342.80144761860004   -2.89901e-12   4.89237e-09 DIIS
  Energy and wave function converged.


  ==> Post-Iterations <==

    Orbital Energies [Eh]
    ---------------------

    Doubly Occupied:                                                      

       1A    -20.562201     2A    -20.552819     3A    -20.549121  
       4A    -11.274360     5A    -11.270127     6A    -11.265251  
       7A     -1.377391     8A     -1.358273     9A     -1.354205  
      10A     -1.021729    11A     -0.920553    12A     -0.800792  
      13A     -0.734139    14A     -0.687538    15A     -0.675931  
      16A     -0.651711    17A     -0.620974    18A     -0.580913  
      19A     -0.566980    20A     -0.527999    21A     -0.517578  
      22A     -0.472881    23A     -0.446248    24A     -0.436387  
      25A     -0.422626  

    Virtual:                                                              

      26A      0.214744    27A      0.225026    28A      0.243312  
      29A      0.285104    30A      0.306718    31A      0.319777  
      32A      0.337051    33A      0.351395    34A      0.403373  
      35A      0.419633    36A      0.427383    37A      0.485138  
      38A      0.501353    39A      0.741659    40A      0.744674  
      41A      0.813720    42A      0.847676    43A      0.859718  
      44A      0.894092    45A      0.953947    46A      0.971206  
      47A      1.035097    48A      1.063003    49A      1.082911  
      50A      1.101216    51A      1.124082    52A      1.126448  
      53A      1.148155    54A      1.184761    55A      1.195773  
      56A      1.225516    57A      1.254524    58A      1.261528  
      59A      1.278313    60A      1.289086    61A      1.335938  
      62A      1.350255    63A      1.394373    64A      1.470222  
      65A      1.479535    66A      1.588556    67A      1.707344  
      68A      1.736250    69A      1.747021    70A      1.802752  
      71A      1.914535    72A      1.923671    73A      1.948420  
      74A      1.975260    75A      2.032630    76A      2.043595  
      77A      2.075911    78A      2.164338    79A      2.218695  
      80A      2.226657    81A      2.297502    82A      2.382697  
      83A      2.407718    84A      2.439652    85A      2.445545  
      86A      2.489320    87A      2.558731    88A      2.672889  
      89A      2.708323    90A      2.762347    91A      2.794158  
      92A      2.851731    93A      2.885458    94A      2.896770  
      95A      2.933811    96A      3.036728    97A      3.058992  
      98A      3.234252    99A      3.277086   100A      3.331189  
     101A      4.064017   102A      4.302511   103A      4.316134  
     104A      4.622814   105A      4.822721   106A      4.989842  

    Final Occupation by Irrep:
              A 
    DOCC [    25 ]
    NA   [    25 ]
    NB   [    25 ]

  @DF-RHF Final Energy:  -342.80144761860004

   => Energetics <=

    Nuclear Repulsion Energy =            264.2362072396477970
    One-Electron Energy =                -994.7778545118876536
    Two-Electron Energy =                 387.7401996536398201
    Total Energy =                       -342.8014476186000365

Computation Completed


Properties will be evaluated at   0.000000,   0.000000,   0.000000 [a0]

Properties computed using the SCF density matrix


 Multipole Moments:

 ------------------------------------------------------------------------------------
     Multipole            Electronic (a.u.)      Nuclear  (a.u.)        Total (a.u.)
 ------------------------------------------------------------------------------------

 L = 1.  Multiply by 2.5417464519 to convert [e a0] to [Debye]
 Dipole X            :        -73.5831898           74.0226674            0.4394776
 Dipole Y            :        -61.9758224           61.6694442           -0.3063782
 Dipole Z            :        126.2085533         -126.5732783           -0.3647250
 Magnitude           :                                                    0.6480991

 ------------------------------------------------------------------------------------

*** tstop() called on sb103.cluster at Fri Sep 15 09:31:03 2023
Module time:
	user time   =       3.60 seconds =       0.06 minutes
	system time =       0.27 seconds =       0.00 minutes
	total time  =          1 seconds =       0.02 minutes
Total time:
	user time   =      19.08 seconds =       0.32 minutes
	system time =       1.62 seconds =       0.03 minutes
	total time  =          6 seconds =       0.10 minutes

*** tstart() called on sb103.cluster
*** at Fri Sep 15 09:31:03 2023


         ------------------------------------------------------------
                                   SCF GRAD                          
                          Rob Parrish, Justin Turney,                
                       Andy Simmonett, and Alex Sokolov              
         ------------------------------------------------------------

  ==> Geometry <==

    Molecular point group: c1
    Full point group: C1

    Geometry (in Angstrom), charge = 0, multiplicity = 1:

       Center              X                  Y                   Z               Mass       
    ------------   -----------------  -----------------  -----------------  -----------------
         O           -0.432655852961     0.342568901694     0.169397282487    15.994914619570
         C            0.937766670434     0.563696667299    -0.027569341765    12.000000000000
         C            1.157426629841     1.197201800172    -1.395388554950    12.000000000000
         O            2.499748028053     1.631601730385    -1.387868839768    15.994914619570
         C            0.949545658968     0.257574152711    -2.579085177991    12.000000000000
         O           -0.419018301786     0.028987918696    -2.757366376310    15.994914619570
         H           -0.569585753338    -0.074151302906     1.006926934493     1.007825032230
         H            1.335988842225     1.248297126269     0.713782926352     1.007825032230
         H            1.499157591610    -0.365497644515     0.042051852675     1.007825032230
         H            0.471881710791     2.032220052967    -1.493672834915     1.007825032230
         H            2.657926613351     2.213932261606    -2.116564151221     1.007825032230
         H            1.491603125525    -0.669591330672    -2.408422126761     1.007825032230
         H            1.377345760559     0.726060557275    -3.465484024255     1.007825032230
         H           -0.546233974273    -0.613309380980    -3.439351009072     1.007825032230

  Nuclear repulsion =  264.236207239647797

  ==> Basis Set <==

  Basis Set: 6-31G*
    Blend: 6-31G*
    Number of shells: 52
    Number of basis functions: 106
    Number of Cartesian functions: 106
    Spherical Harmonics?: false
    Max angular momentum: 2

  ==> DFJKGrad: Density-Fitted SCF Gradients <==

    Gradient:                    1
    J tasked:                  Yes
    K tasked:                  Yes
    wK tasked:                  No
    OpenMP threads:              4
    Integrals threads:           4
    Memory [MiB]:              375
    Schwarz Cutoff:          1E-12
    Fitting Condition:       1E-10

   => Auxiliary Basis Set <=

  Basis Set: (6-31G* AUX)
    Blend: CC-PVDZ-JKFIT
    Number of shells: 216
    Number of basis functions: 686
    Number of Cartesian functions: 686
    Spherical Harmonics?: false
    Max angular momentum: 3


  -Total Gradient:
     Atom            X                  Y                   Z
    ------   -----------------  -----------------  -----------------
       1       -0.002041572322    -0.001285767511     0.001076274184
       2        0.002894297258     0.000637303236     0.000168788612
       3       -0.001422138606     0.001764597551    -0.000000864822
       4        0.000847730687     0.001128516027    -0.001362804804
       5        0.002921314268     0.000054456924    -0.000565805354
       6       -0.001431271297    -0.000647332973     0.000764645197
       7       -0.000615884476     0.000214470546    -0.000852101263
       8       -0.000168163931    -0.000626333305    -0.000793257053
       9       -0.000911405484    -0.000224417553     0.000751659967
      10        0.000086966910    -0.000938442616     0.000024313503
      11        0.000562036297    -0.000315508415     0.000584044261
      12       -0.000606467485    -0.000083896353    -0.000531582623
      13       -0.000402324194    -0.000317449245     0.000112527629
      14        0.000286882377     0.000639803686     0.000624162566


*** tstop() called on sb103.cluster at Fri Sep 15 09:31:03 2023
Module time:
	user time   =       2.28 seconds =       0.04 minutes
	system time =       0.13 seconds =       0.00 minutes
	total time  =          0 seconds =       0.00 minutes
Total time:
	user time   =      21.36 seconds =       0.36 minutes
	system time =       1.75 seconds =       0.03 minutes
	total time  =          6 seconds =       0.10 minutes

    			-----------------------------------------

    			 OPTKING 3.0: for geometry optimizations 

    			     By R.A. King, Bethel University     

    			        with contributions from          

    			    A.V. Copan, J. Cayton, A. Heide      

    			-----------------------------------------

    
	                            ===> Fragment 1 <== 

	 Z (Atomic Numbers)          Masses                          Geom                  
	       8.000000            15.994915         -0.81760107  0.64736140  0.32011447   
	       6.000000            12.000000          1.77212218  1.06523232 -0.05209851   
	       6.000000            12.000000          2.18721934  2.26238352 -2.63690221   
	       8.000000            15.994915          4.72383916  3.08328042 -2.62269201   
	       6.000000            12.000000          1.79438124  0.48674461 -4.87376464   
	       8.000000            15.994915         -0.79182983  0.05477923 -5.21066728   
	       1.000000             1.007825         -1.07636108 -0.14012565  1.90281613   
	       1.000000             1.007825          2.52465302  2.35893969  1.34885424   
	       1.000000             1.007825          2.83299727 -0.69069045  0.07946648   
	       1.000000             1.007825          0.89172720  3.84033933 -2.82263258   
	       1.000000             1.007825          5.02275336  4.18372563 -3.99972657   
	       1.000000             1.007825          2.81872140 -1.26534423 -4.55125821   
	       1.000000             1.007825          2.60280627  1.37205560 -6.54881570   
	       1.000000             1.007825         -1.03223261 -1.15898676 -6.49943146   

	 - Coordinate -           - BOHR/RAD -       - ANG/DEG -
	 H(1,8)           =         3.893388           2.060292
	 H(1,9)           =         3.895531           2.061426
	 H(4,10)          =         3.911291           2.069766
	 H(6,12)          =         3.900465           2.064037
	 H(6,13)          =         3.879357           2.052867
[...]
	 D(4,3,2,8)       =         0.918307          52.615125
	 D(4,3,2,9)       =        -1.283292         -73.527223
	 D(4,3,5,6)       =        -2.312311        -132.485674
	 D(4,3,5,12)      =        -3.194983        -183.059057
	 D(4,3,5,13)      =        -0.472800         -27.089459
	 D(4,3,6,5)       =         1.288312          73.814839
	 D(4,3,6,14)      =        -3.210367        -183.940472
	 D(5,3,2,8)       =        -3.045928        -174.518793
	 D(5,3,2,9)       =         1.035658          59.338859
	 D(5,3,4,11)      =         1.040561          59.619753
	 D(5,3,6,14)      =         1.784506         102.244689
	 D(5,6,3,10)      =         2.671308         153.054670
	 D(6,3,2,8)       =        -2.239869        -128.335049
	 D(6,3,2,9)       =         1.841717         105.522603
	 D(6,3,4,11)      =         0.226854          12.997803
	 D(6,3,5,12)      =        -0.882672         -50.573383
	 D(6,3,5,13)      =         1.839511         105.396215
	 D(6,5,3,10)      =        -0.444438         -25.464445
	 D(6,14,1,7)      =         3.052816         174.913463
	 D(7,1,2,8)       =        -1.059397         -60.698969
	 D(7,1,2,9)       =         1.000382          57.317649
	 D(8,2,1,14)      =         2.416982         138.482871
	 D(8,2,3,10)      =        -1.066427         -61.101783
	 D(9,2,1,14)      =        -1.806425        -103.500511
	 D(9,2,3,10)      =         3.015159         172.755869
	 D(10,3,4,11)     =        -0.907535         -51.997945
	 D(10,3,5,12)     =        -1.327110         -76.037828
	 D(10,3,5,13)     =         1.395073          79.931770
	 D(10,3,6,14)     =        -1.827371        -104.700642
	 D(12,5,6,14)     =         1.585548          90.845197
	 D(13,5,6,14)     =         3.197202         183.186181
	 X(1)             =        -0.093698          -0.049583
	 Y(1)             =        -1.251392          -0.662208
	 Z(1)             =        -0.951073          -0.503286
	 X(2)             =         2.562294           1.355908
	 Y(2)             =        -0.999941          -0.529146
	 Z(2)             =        -1.471939          -0.778916
	 X(3)             =         2.873056           1.520356
	 Y(3)             =         1.816179           0.961080
	 Z(3)             =        -2.412306          -1.276538
	 X(4)             =         5.201608           2.752572
	 Y(4)             =         3.076012           1.627755
	 Z(4)             =        -2.804972          -1.484327
	 X(5)             =         1.104255           0.584346
	 Y(5)             =         2.208780           1.168836
	 Z(5)             =        -4.725085          -2.500407
	 X(6)             =        -1.032032          -0.546128
	 Y(6)             =         2.881624           1.524890
	 Z(6)             =        -2.889646          -1.529135
	 X(7)             =        -0.552770          -0.292514
	 Y(7)             =        -2.905181          -1.537355
	 Z(7)             =        -0.431039          -0.228096
	 X(8)             =         3.581857           1.895437
	 Y(8)             =        -1.425856          -0.754530
	 Z(8)             =         0.244905           0.129598
	 X(9)             =         3.032686           1.604829
	 Y(9)             =        -2.378876          -1.258847
	 Z(9)             =        -2.910362          -1.540097
	 X(10)            =         2.130691           1.127513
	 Y(10)            =         2.945606           1.558747
	 Z(10)            =        -0.929286          -0.491757
	 X(11)            =         4.635664           2.453088
	 Y(11)            =         4.786146           2.532719
	 Z(11)            =        -3.004916          -1.590133
	 X(12)            =        -0.451308          -0.238822
	 Y(12)            =         2.158182           1.142060
	 Z(12)            =        -6.059665          -3.206637
	 X(13)            =         1.836535           0.971852
	 Y(13)            =         4.020134           2.127364
	 Z(13)            =        -5.404014          -2.859681
	 X(14)            =        -1.375641          -0.727958
	 Y(14)            =         1.168277           0.618226
	 Z(14)            =        -2.417341          -1.279202


	        --- Internal Coordinate Step in ANG or DEG, aJ/ANG or AJ/DEG ---
	-------------------------------------------------------------------------------
	           Coordinate      Previous         Force          Change          New 
	           ----------      --------        ------          ------        ------
	              H(4,10)       1.90546        0.04472        0.00602       1.91148
	               R(1,2)       1.43843       -0.00969       -0.00128       1.43715
	               R(1,7)       0.94901       -0.00278       -0.00024       0.94877
	              R(1,14)       1.64370        0.09986        0.01302       1.65672
	               R(2,3)       1.57970       -0.03647       -0.00481       1.57489
	               R(2,8)       1.08041        0.00282        0.00039       1.08081
	               R(2,9)       1.08343        0.00050        0.00005       1.08348
	               R(3,4)       1.41633       -0.02584       -0.00326       1.41307
	               R(3,5)       1.55471        0.00321        0.00044       1.55516
	               R(3,6)       2.15686        0.07160        0.00932       2.16618
	              R(3,10)       1.06180        0.00389        0.00048       1.06228
	              R(4,11)       0.95909       -0.00607       -0.00065       0.95844
	               R(5,6)       1.53236        0.01136        0.00148       1.53383
	              R(5,12)       1.08493        0.00026        0.00009       1.08502
	              R(5,13)       1.09454       -0.00496       -0.00060       1.09394
	              R(6,14)       0.95790       -0.00132       -0.00015       0.95775
	             B(1,2,3)     104.43876       -0.00014       -0.22204     104.21672
	             B(1,2,8)     107.90921        0.00003        0.05306     107.96227
	             B(1,2,9)     107.26628        0.00010        0.16835     107.43463
	            B(1,14,6)     141.45836       -0.00009       -0.14937     141.30898
	             B(2,1,7)     113.01611       -0.00005       -0.08742     112.92870
	            B(2,1,14)     103.93056        0.00017        0.26730     104.19786
	             B(2,3,4)     125.50894       -0.00054       -0.84066     124.66828
	             B(2,3,5)     108.14142        0.00024        0.38186     108.52328
	             B(2,3,6)     100.58829        0.00033        0.50034     101.08863
	            B(2,3,10)     105.04992        0.00002        0.03104     105.08096
	             B(3,2,8)     114.18601        0.00002        0.01880     114.20481
	             B(3,2,9)     112.96261       -0.00001       -0.00638     112.95623
	            B(3,4,11)     100.87459        0.00021        0.32495     101.19954
	             B(3,5,6)      88.63853        0.00027        0.41472      89.05326
	            B(3,5,12)     164.99687       -0.00021       -0.35466     164.64221
	            B(3,5,13)      99.33871        0.00008        0.13583      99.47454
	             B(3,6,5)      46.10563       -0.00015       -0.23018      45.87545
	            B(3,6,14)      84.48476       -0.00023       -0.33946      84.14530
	             B(4,3,5)     110.20585        0.00012        0.18563     110.39148
	             B(4,3,6)     133.89403        0.00022        0.33572     134.22974
	            B(4,3,10)      99.51853        0.00040        0.62229     100.14082
	             B(5,3,6)      45.25583       -0.00012       -0.18454      45.07129
	            B(5,3,10)     106.49085       -0.00023       -0.35975     106.13110
	            B(5,6,14)      94.90421       -0.00010       -0.13652      94.76769
	            B(6,3,10)      65.47713       -0.00016       -0.25067      65.22646
	            B(6,5,12)      81.87053       -0.00022       -0.33705      81.53348
	            B(6,5,13)     105.41183       -0.00007       -0.10650     105.30534
	            B(7,1,14)     138.55560       -0.00012       -0.18334     138.37226
	             B(8,2,9)     109.60610       -0.00000       -0.00533     109.60077
	           B(12,5,13)      94.39101        0.00020        0.33030      94.72131
	           D(1,2,3,4)     170.24346        0.00005        0.07809     170.32154
	           D(1,2,3,5)     -56.89046       -0.00004       -0.06013     -56.95059
	           D(1,2,3,6)     -10.70672       -0.00009       -0.13709     -10.84381
	          D(1,2,3,10)      56.52655       -0.00018       -0.28905      56.23750
	          D(1,14,6,3)      20.95981       -0.00025       -0.40249      20.55731
	          D(1,14,6,5)      65.93604       -0.00043       -0.68313      65.25291
	          D(2,1,14,6)     -32.27309        0.00015        0.25013     -32.02296
	          D(2,3,4,11)    -168.29834       -0.00006       -0.09205    -168.39039
	           D(2,3,5,6)      86.99088        0.00018        0.27402      87.26489
	          D(2,3,5,12)      36.41749       -0.00068       -1.11652      35.30097
	          D(2,3,5,13)    -167.61291        0.00015        0.23835    -167.37456
	           D(2,3,6,5)    -105.11182       -0.00004       -0.06277    -105.17459
	          D(2,3,6,14)      -2.86713        0.00010        0.15791      -2.70922
	           D(3,2,1,7)    -182.55691       -0.00001       -0.01168    -182.56859
	          D(3,2,1,14)      16.62494        0.00003        0.03838      16.66332
	          D(3,5,6,14)     -77.50131        0.00027        0.41548     -77.08584
	          D(3,6,5,12)     168.34651       -0.00031       -0.52143     167.82508
	          D(3,6,5,13)     -99.31251       -0.00016       -0.25230     -99.56481
	           D(4,3,2,8)      52.61513        0.00010        0.14602      52.76114
	           D(4,3,2,9)     -73.52722        0.00009        0.14291     -73.38431
	           D(4,3,5,6)    -132.48567       -0.00024       -0.38196    -132.86764
	          D(4,3,5,12)    -183.05906       -0.00110       -1.77250    -184.83156
	          D(4,3,5,13)     -27.08946       -0.00027       -0.41764     -27.50709
	           D(4,3,6,5)      73.81484       -0.00020       -0.32706      73.48778
	          D(4,3,6,14)    -183.94047       -0.00007       -0.10638    -184.04685
	           D(5,3,2,8)    -174.51879        0.00001        0.00780    -174.51099
	           D(5,3,2,9)      59.33886        0.00000        0.00470      59.34356
	          D(5,3,4,11)      59.61975       -0.00001       -0.01431      59.60545
	          D(5,3,6,14)     102.24469        0.00013        0.22068     102.46537
	          D(5,6,3,10)     153.05467        0.00010        0.14266     153.19733
	           D(6,3,2,8)    -128.33505       -0.00004       -0.06916    -128.40421
	           D(6,3,2,9)     105.52260       -0.00005       -0.07227     105.45033
	          D(6,3,4,11)      12.99780        0.00013        0.20788      13.20569
	          D(6,3,5,12)     -50.57338       -0.00086       -1.39054     -51.96392
	          D(6,3,5,13)     105.39621       -0.00003       -0.03567     105.36054
	          D(6,5,3,10)     -25.46445        0.00016        0.23769     -25.22675
	          D(6,14,1,7)     174.91346        0.00014        0.23667     175.15013
	           D(7,1,2,8)     -60.69897       -0.00005       -0.08296     -60.78193
	           D(7,1,2,9)      57.31765        0.00002        0.02853      57.34618
	          D(8,2,1,14)     138.48287       -0.00001       -0.03289     138.44998
	          D(8,2,3,10)     -61.10178       -0.00014       -0.22112     -61.32290
	          D(9,2,1,14)    -103.50051        0.00005        0.07860    -103.42191
	          D(9,2,3,10)     172.75587       -0.00015       -0.22422     172.53165
	         D(10,3,4,11)     -51.99795        0.00002        0.03552     -51.96242
	         D(10,3,5,12)     -76.03783       -0.00070       -1.15285     -77.19067
	         D(10,3,5,13)      79.93177        0.00013        0.20202      80.13379
	         D(10,3,6,14)    -104.70064        0.00023        0.36334    -104.33730
	         D(12,5,6,14)      90.84520       -0.00005       -0.10596      90.73924
	         D(13,5,6,14)     183.18618        0.00011        0.16318     183.34936
	                 X(1)      -0.04958        0.04396        0.00571      -0.04387
	                 Y(1)      -0.66221        0.00549        0.00080      -0.66140
	                 Z(1)      -0.50329        0.00281        0.00031      -0.50298
	                 X(2)       1.35591        0.03228        0.00418       1.36008
	                 Y(2)      -0.52915        0.01761        0.00230      -0.52685
	                 Z(2)      -0.77892       -0.00032       -0.00011      -0.77902
	                 X(3)       1.52036       -0.03314       -0.00438       1.51597
	                 Y(3)       0.96108       -0.01043       -0.00139       0.95969
	                 Z(3)      -1.27654        0.00987        0.00134      -1.27520
	                 X(4)       2.75257       -0.00520       -0.00062       2.75195
	                 Y(4)       1.62776       -0.10987       -0.01449       1.61327
	                 Z(4)      -1.48433        0.03267        0.00431      -1.48001
	                 X(5)       0.58435       -0.02540       -0.00329       0.58105
	                 Y(5)       1.16884        0.02632        0.00363       1.17247
	                 Z(5)      -2.50041        0.00612        0.00080      -2.49960
	                 X(6)      -0.54613       -0.08381       -0.01093      -0.55705
	                 Y(6)       1.52489        0.04978        0.00652       1.53141
	                 Z(6)      -1.52913       -0.05255       -0.00687      -1.53601
	                 X(7)      -0.29251        0.06377        0.00833      -0.28418
	                 Y(7)      -1.53736        0.00322        0.00039      -1.53696
	                 Z(7)      -0.22810        0.00351        0.00047      -0.22762
	                 X(8)       1.89544        0.04409        0.00585       1.90129
	                 Y(8)      -0.75453        0.03517        0.00473      -0.74980
	                 Z(8)       0.12960        0.00037       -0.00004       0.12956
	                 X(9)       1.60483        0.05808        0.00765       1.61248
	                 Y(9)      -1.25885        0.02780        0.00368      -1.25517
	                 Z(9)      -1.54010       -0.00235       -0.00035      -1.54045
	                X(10)       1.12751       -0.08170       -0.01081       1.11671
	                Y(10)       1.55875       -0.02168       -0.00291       1.55584
	                Z(10)      -0.49176       -0.00061       -0.00010      -0.49186
	                X(11)       2.45309        0.10100        0.01336       2.46645
	                Y(11)       2.53272       -0.08316       -0.01093       2.52179
	                Z(11)      -1.59013        0.01544        0.00207      -1.58806
	                X(12)      -0.23882       -0.02606       -0.00344      -0.24226
	                Y(12)       1.14206       -0.01433       -0.00233       1.13973
	                Z(12)      -3.20664        0.00801        0.00109      -3.20554
	                X(13)       0.97185       -0.02227       -0.00293       0.96892
	                Y(13)       2.12736        0.02204        0.00313       2.13050
	                Z(13)      -2.85968        0.01317        0.00169      -2.85799
	                X(14)      -0.72796       -0.06561       -0.00869      -0.73665
	                Y(14)       0.61823        0.05205        0.00686       0.62508
	                Z(14)      -1.27920       -0.03613       -0.00461      -1.28381
	-------------------------------------------------------------------------------

	                                 ==> Convergence Check <==                                  
    
	Measures of convergence in internal coordinates in au.
    
	Criteria marked as inactive (o), active & met (*), and active & unmet ( ).

	----------------------------------------------------------------------------------------------
	   Step    Total Energy     Delta E     Max Force     RMS Force      Max Disp      RMS Disp   
	----------------------------------------------------------------------------------------------
	  Convergence Criteria     1.00e-06 *    3.00e-04 *             o    1.20e-03 *             o
	----------------------------------------------------------------------------------------------
	    39    -342.63993630   -4.90e-03      1.45e-02      4.11e-03 o    3.09e-02      8.54e-03 o  ~
	----------------------------------------------------------------------------------------------

Next Geometry in Ang 
	Fragment 1 (Ang)

	    O  -0.0438692862  -0.6614048515  -0.5029774137
	    C   1.3600841255  -0.5268469275  -0.7790241649
	    C   1.5159745513   0.9596859172  -1.2752018623
	    O   2.7519508130   1.6132699124  -1.4800142446
	    C   0.5810546549   1.1724697101  -2.4996026092
	    O  -0.5570531134   1.5314071303  -1.5360056850
	    H  -0.2841809956  -1.5369628751  -0.2276231922
	    H   1.9012902784  -0.7498013449   0.1295612683
	    H   1.6124804942  -1.2551696153  -1.5404493269
	    H   1.1167058918   1.5558361679  -0.4918616428
	    H   2.4664456083   2.5217914071  -1.5880642339
	    H  -0.2422594910   1.1397342512  -3.2055426587
	    H   0.9689233754   2.1304977682  -2.8579937362
	    H  -0.7366501575   0.6250848598  -1.2838139390


    Structure for next step:
    Molecular point group: c1
    Full point group: C1

    Geometry (in Angstrom), charge = 0, multiplicity = 1:

    O           -0.043869286190    -0.661404851503    -0.502977413705
    C            1.360084125489    -0.526846927504    -0.779024164942
    C            1.515974551312     0.959685917160    -1.275201862310
    O            2.751950813002     1.613269912401    -1.480014244637
    C            0.581054654864     1.172469710103    -2.499602609153
    O           -0.557053113400     1.531407130331    -1.536005684984
    H           -0.284180995645    -1.536962875103    -0.227623192157
    H            1.901290278375    -0.749801344938     0.129561268346
    H            1.612480494209    -1.255169615254    -1.540449326854
    H            1.116705891750     1.555836167926    -0.491861642816
    H            2.466445608340     2.521791407084    -1.588064233914
    H           -0.242259491025     1.139734251240    -3.205542658653
    H            0.968923375409     2.130497768188    -2.857993736155
    H           -0.736650157501     0.625084859849    -1.283813939045


PsiException: Could not converge geometry optimization in 50 iterations.


Traceback (most recent call last):
  File "/mnt/nfs/home/nca121/.conda/envs/p4env/bin/psi4", line 372, in <module>
    exec(content)
  File "<string>", line 40, in <module>
  File "/mnt/nfs/home/nca121/.conda/envs/p4env/lib/python3.11/site-packages/psi4/driver/driver.py", line 1356, in optimize
    raise OptimizationConvergenceError("""geometry optimization""", n - 1, wfn)

psi4.driver.p4util.exceptions.OptimizationConvergenceError: Could not converge geometry optimization in 50 iterations.


Printing out the relevant lines from the Psithon --> Python processed input file:
      H -0.443421751 -0.582687497 -3.540498734
    ""","mol")
    core.IO.set_default_namespace("mol")
    core.set_global_option("BASIS", "6-31G*")
    core.set_global_option("DYNAMIC_LEVEL", 2)
--> optimize('scf')
    E,wfn = prop('hf', properties = ['GRID_ESP', 'GRID_FIELD'], return_wfn=True)

!-------------------------------------------------------------!
!                                                             !
!  Could not converge geometry optimization in 50 iterations. !
!                                                             !
!-------------------------------------------------------------!

    Psi4 stopped on: Friday, 15 September 2023 09:33AM
    Psi4 wall time for execution: 0:02:18.04

*** Psi4 encountered an error. Buy a developer more coffee!
*** Resources and help at github.com/psi4/psi4.
