
    -----------------------------------------------------------------------
          Psi4: An Open-Source Ab Initio Electronic Structure Package
                               Psi4 1.8.1 release

                         Git: Rev {} zzzzzzz 


    D. G. A. Smith, L. A. Burns, A. C. Simmonett, R. M. Parrish,
    M. C. Schieber, R. Galvelis, P. Kraus, H. Kruse, R. Di Remigio,
    A. Alenaizan, A. M. James, S. Lehtola, J. P. Misiewicz, M. Scheurer,
    R. A. Shaw, J. B. Schriber, Y. Xie, Z. L. Glick, D. A. Sirianni,
    J. S. O'Brien, J. M. Waldrop, A. Kumar, E. G. Hohenstein,
    B. P. Pritchard, B. R. Brooks, H. F. Schaefer III, A. Yu. Sokolov,
    K. Patkowski, A. E. DePrince III, U. Bozkaya, R. A. King,
    F. A. Evangelista, J. M. Turney, T. D. Crawford, C. D. Sherrill,
    J. Chem. Phys. 152(18) 184108 (2020). https://doi.org/10.1063/5.0006002

                            Additional Code Authors
    E. T. Seidl, C. L. Janssen, E. F. Valeev, M. L. Leininger,
    J. F. Gonthier, R. M. Richard, H. R. McAlexander, M. Saitow, X. Wang,
    P. Verma, M. H. Lechner, A. Jiang, S. Behnle, A. G. Heide,
    M. F. Herbst, and D. L. Poole

             Previous Authors, Complete List of Code Contributors,
                       and Citations for Specific Modules
    https://github.com/psi4/psi4/blob/master/codemeta.json
    https://github.com/psi4/psi4/graphs/contributors
    http://psicode.org/psi4manual/master/introduction.html#citing-psifour

    -----------------------------------------------------------------------


    Psi4 started on: Thursday, 14 September 2023 02:43PM

    Process ID: 38196
    Host:       sb061.cluster
    PSIDATADIR: /mnt/nfs/home/nca121/.conda/envs/p4env/share/psi4
    Memory:     500.0 MiB
    Threads:    4
    
  ==> Input File <==

--------------------------------------------------------------------------
molecule mol {

  noreorient

  nocom

  0 1

  O -0.441725969  0.405654699  0.224152058

  C  0.952345967  0.538462937 -0.032555223

  C  1.143980265  1.233094573 -1.374383688

  O  2.467077732  1.773290634 -1.406449676

  C  0.985560060  0.257294655 -2.534839153

  O -0.396745652  0.041104283 -2.798947811

  H -0.532666981 -0.039461162  1.083984137

  H  1.390232444  1.123285651  0.783144593

  H  1.392245412 -0.463723868 -0.041223831

  H  0.455191284  2.079832554 -1.471976757

  H  2.562606573  2.207801580 -2.266771555

  H  1.443327546 -0.711507380 -2.311905861

  H  1.432889819  0.657149851 -3.450341940

  H -0.443421751 -0.582687497 -3.540498734

}



set {

  basis 6-31G*

}



optimize('scf')



E,wfn = prop('hf', properties = ['GRID_ESP', 'GRID_FIELD'], return_wfn=True)
--------------------------------------------------------------------------

Scratch directory: /mnt/storage/nobackup/nca121/scratch_dir/
gradient() will perform analytic gradient computation.
   => Libint2 <=

    Primary   basis highest AM E, G, H:  5, 4, 3
    Auxiliary basis highest AM E, G, H:  6, 5, 4
    Onebody   basis highest AM E, G, H:  6, 5, 4
    Solid Harmonics ordering:            gaussian

*** tstart() called on sb061.cluster
*** at Thu Sep 14 14:43:15 2023

   => Loading Basis Set <=

    Name: 6-31G*
    Role: ORBITAL
    Keyword: BASIS
    atoms 1, 4, 6 entry O          line   145 file /mnt/nfs/home/nca121/.conda/envs/p4env/share/psi4/basis/6-31gs.gbs 
    atoms 2-3, 5  entry C          line   111 file /mnt/nfs/home/nca121/.conda/envs/p4env/share/psi4/basis/6-31gs.gbs 
    atoms 7-14    entry H          line    44 file /mnt/nfs/home/nca121/.conda/envs/p4env/share/psi4/basis/6-31gs.gbs 


         ---------------------------------------------------------
                                   SCF
               by Justin Turney, Rob Parrish, Andy Simmonett
                          and Daniel G. A. Smith
                              RHF Reference
                        4 Threads,    500 MiB Core
         ---------------------------------------------------------

  ==> Geometry <==

    Molecular point group: c1
    Full point group: C1

    Geometry (in Angstrom), charge = 0, multiplicity = 1:

       Center              X                  Y                   Z               Mass       
    ------------   -----------------  -----------------  -----------------  -----------------
         O           -0.441725969000     0.405654699000     0.224152058000    15.994914619570
         C            0.952345967000     0.538462937000    -0.032555223000    12.000000000000
         C            1.143980265000     1.233094573000    -1.374383688000    12.000000000000
         O            2.467077732000     1.773290634000    -1.406449676000    15.994914619570
         C            0.985560060000     0.257294655000    -2.534839153000    12.000000000000
         O           -0.396745652000     0.041104283000    -2.798947811000    15.994914619570
         H           -0.532666981000    -0.039461162000     1.083984137000     1.007825032230
         H            1.390232444000     1.123285651000     0.783144593000     1.007825032230
         H            1.392245412000    -0.463723868000    -0.041223831000     1.007825032230
         H            0.455191284000     2.079832554000    -1.471976757000     1.007825032230
         H            2.562606573000     2.207801580000    -2.266771555000     1.007825032230
         H            1.443327546000    -0.711507380000    -2.311905861000     1.007825032230
         H            1.432889819000     0.657149851000    -3.450341940000     1.007825032230
         H           -0.443421751000    -0.582687497000    -3.540498734000     1.007825032230

  Running in c1 symmetry.

  Rotational constants: A =      0.11398  B =      0.04127  C =      0.03209 [cm^-1]
  Rotational constants: A =   3417.01995  B =   1237.12286  C =    962.06186 [MHz]
  Nuclear repulsion =  261.676331691510882

  Charge       = 0
  Multiplicity = 1
  Electrons    = 50
  Nalpha       = 25
  Nbeta        = 25

  ==> Algorithm <==

  SCF Algorithm Type is DF.
  DIIS enabled.
  MOM disabled.
  Fractional occupation disabled.
  Guess Type is SAD.
  Energy threshold   = 1.00e-08
  Density threshold  = 1.00e-08
  Integral threshold = 1.00e-12

  ==> Primary Basis <==

  Basis Set: 6-31G*
    Blend: 6-31G*
    Number of shells: 52
    Number of basis functions: 106
    Number of Cartesian functions: 106
    Spherical Harmonics?: false
    Max angular momentum: 2

   => Loading Basis Set <=

    Name: (6-31G* AUX)
    Role: JKFIT
    Keyword: DF_BASIS_SCF
    atoms 1, 4, 6 entry O          line   221 file /mnt/nfs/home/nca121/.conda/envs/p4env/share/psi4/basis/cc-pvdz-jkfit.gbs 
    atoms 2-3, 5  entry C          line   121 file /mnt/nfs/home/nca121/.conda/envs/p4env/share/psi4/basis/cc-pvdz-jkfit.gbs 
    atoms 7-14    entry H          line    51 file /mnt/nfs/home/nca121/.conda/envs/p4env/share/psi4/basis/cc-pvdz-jkfit.gbs 

  ==> Integral Setup <==

  DFHelper Memory: AOs need 0.063 GiB; user supplied 0.366 GiB. 
  Using in-core AOs.

  ==> MemDFJK: Density-Fitted J/K Matrices <==

    J tasked:                   Yes
    K tasked:                   Yes
    wK tasked:                   No
    OpenMP threads:               4
    Memory [MiB]:               375
    Algorithm:                 Core
    Schwarz Cutoff:           1E-12
    Mask sparsity (%):       1.2460
    Fitting Condition:        1E-10

   => Auxiliary Basis Set <=

  Basis Set: (6-31G* AUX)
    Blend: CC-PVDZ-JKFIT
    Number of shells: 216
    Number of basis functions: 686
    Number of Cartesian functions: 686
    Spherical Harmonics?: false
    Max angular momentum: 3

  Minimum eigenvalue in the overlap matrix is 3.2939808942E-03.
  Reciprocal condition number of the overlap matrix is 4.6115928500E-04.
    Using symmetric orthogonalization.

  ==> Pre-Iterations <==

  SCF Guess: Superposition of Atomic Densities via on-the-fly atomic UHF (no occupation information).

   -------------------------
    Irrep   Nso     Nmo    
   -------------------------
     A        106     106 
   -------------------------
    Total     106     106
   -------------------------

  ==> Iterations <==

                           Total Energy        Delta E     RMS |[F,P]|

   @DF-RHF iter SAD:  -341.67349870986948   -3.41673e+02   0.00000e+00 
   @DF-RHF iter   1:  -342.61625052865173   -9.42752e-01   5.67443e-03 ADIIS/DIIS
   @DF-RHF iter   2:  -342.75550386835778   -1.39253e-01   3.06728e-03 ADIIS/DIIS
   @DF-RHF iter   3:  -342.79174761283093   -3.62437e-02   4.90305e-04 ADIIS/DIIS
   @DF-RHF iter   4:  -342.79350409237759   -1.75648e-03   1.18211e-04 ADIIS/DIIS
   @DF-RHF iter   5:  -342.79359888028557   -9.47879e-05   3.16198e-05 DIIS
   @DF-RHF iter   6:  -342.79360653409981   -7.65381e-06   7.73198e-06 DIIS
   @DF-RHF iter   7:  -342.79360721208883   -6.77989e-07   2.01792e-06 DIIS
   @DF-RHF iter   8:  -342.79360725118937   -3.91005e-08   8.41507e-07 DIIS
   @DF-RHF iter   9:  -342.79360725703691   -5.84754e-09   1.59868e-07 DIIS
   @DF-RHF iter  10:  -342.79360725736473   -3.27816e-10   4.92238e-08 DIIS
   @DF-RHF iter  11:  -342.79360725739718   -3.24576e-11   1.61768e-08 DIIS
   @DF-RHF iter  12:  -342.79360725740020   -3.01270e-12   4.12075e-09 DIIS
  Energy and wave function converged.


  ==> Post-Iterations <==

    Orbital Energies [Eh]
    ---------------------

    Doubly Occupied:                                                      

       1A    -20.565399     2A    -20.556585     3A    -20.552781  
       4A    -11.282136     5A    -11.278345     6A    -11.273287  
       7A     -1.368427     8A     -1.348066     9A     -1.344264  
      10A     -1.021909    11A     -0.914605    12A     -0.803126  
      13A     -0.716357    14A     -0.676603    15A     -0.672143  
      16A     -0.655291    17A     -0.614592    18A     -0.584194  
      19A     -0.564541    20A     -0.526004    21A     -0.517935  
      22A     -0.472962    23A     -0.453881    24A     -0.437815  
      25A     -0.427632  

    Virtual:                                                              

      26A      0.206506    27A      0.217102    28A      0.235822  
      29A      0.273658    30A      0.306635    31A      0.310256  
      32A      0.334312    33A      0.343487    34A      0.396741  
      35A      0.411464    36A      0.415670    37A      0.474053  
      38A      0.495246    39A      0.744936    40A      0.753438  
      41A      0.797428    42A      0.834710    43A      0.850304  
      44A      0.888712    45A      0.938719    46A      0.990535  
      47A      1.027657    48A      1.058939    49A      1.072924  
      50A      1.106018    51A      1.115696    52A      1.124570  
      53A      1.142919    54A      1.172272    55A      1.187636  
      56A      1.218054    57A      1.241294    58A      1.255271  
      59A      1.262400    60A      1.268794    61A      1.325987  
      62A      1.350205    63A      1.404945    64A      1.455106  
      65A      1.497013    66A      1.557561    67A      1.668227  
      68A      1.725532    69A      1.732108    70A      1.786605  
      71A      1.898648    72A      1.931318    73A      1.945921  
      74A      1.993442    75A      2.040804    76A      2.057935  
      77A      2.099665    78A      2.153924    79A      2.212537  
      80A      2.214390    81A      2.268821    82A      2.363393  
      83A      2.403976    84A      2.414520    85A      2.429866  
      86A      2.487714    87A      2.604397    88A      2.648101  
      89A      2.706651    90A      2.722458    91A      2.791247  
      92A      2.817129    93A      2.836985    94A      2.852743  
      95A      2.915234    96A      2.995480    97A      3.065820  
      98A      3.216145    99A      3.258671   100A      3.323028  
     101A      4.050976   102A      4.265647   103A      4.288811  
     104A      4.624019   105A      4.829282   106A      4.986986  

    Final Occupation by Irrep:
              A 
    DOCC [    25 ]
    NA   [    25 ]
    NB   [    25 ]

  @DF-RHF Final Energy:  -342.79360725740020

   => Energetics <=

    Nuclear Repulsion Energy =            261.6763316915108817
    One-Electron Energy =                -989.6821140128881780
    Two-Electron Energy =                 385.2121750639770994
    Total Energy =                       -342.7936072574001969

Computation Completed


Properties will be evaluated at   0.000000,   0.000000,   0.000000 [a0]

Properties computed using the SCF density matrix


 Multipole Moments:

 ------------------------------------------------------------------------------------
     Multipole            Electronic (a.u.)      Nuclear  (a.u.)        Total (a.u.)
 ------------------------------------------------------------------------------------

 L = 1.  Multiply by 2.5417464519 to convert [e a0] to [Debye]
 Dipole X            :        -73.5881453           74.1161376            0.5279924
 Dipole Y            :        -65.1263512           64.6365697           -0.4897815
 Dipole Z            :        125.6458164         -126.0753873           -0.4295708
 Magnitude           :                                                    0.8385660

 ------------------------------------------------------------------------------------

*** tstop() called on sb061.cluster at Thu Sep 14 14:43:17 2023
Module time:
	user time   =       4.41 seconds =       0.07 minutes
	system time =       0.50 seconds =       0.01 minutes
	total time  =          2 seconds =       0.03 minutes
Total time:
	user time   =       4.41 seconds =       0.07 minutes
	system time =       0.50 seconds =       0.01 minutes
	total time  =          2 seconds =       0.03 minutes

*** tstart() called on sb061.cluster
*** at Thu Sep 14 14:43:17 2023


         ------------------------------------------------------------
                                   SCF GRAD                          
                          Rob Parrish, Justin Turney,                
                       Andy Simmonett, and Alex Sokolov              
         ------------------------------------------------------------

  ==> Geometry <==

    Molecular point group: c1
    Full point group: C1

    Geometry (in Angstrom), charge = 0, multiplicity = 1:

       Center              X                  Y                   Z               Mass       
    ------------   -----------------  -----------------  -----------------  -----------------
         O           -0.441725969000     0.405654699000     0.224152058000    15.994914619570
         C            0.952345967000     0.538462937000    -0.032555223000    12.000000000000
         C            1.143980265000     1.233094573000    -1.374383688000    12.000000000000
         O            2.467077732000     1.773290634000    -1.406449676000    15.994914619570
         C            0.985560060000     0.257294655000    -2.534839153000    12.000000000000
         O           -0.396745652000     0.041104283000    -2.798947811000    15.994914619570
         H           -0.532666981000    -0.039461162000     1.083984137000     1.007825032230
         H            1.390232444000     1.123285651000     0.783144593000     1.007825032230
         H            1.392245412000    -0.463723868000    -0.041223831000     1.007825032230
         H            0.455191284000     2.079832554000    -1.471976757000     1.007825032230
         H            2.562606573000     2.207801580000    -2.266771555000     1.007825032230
         H            1.443327546000    -0.711507380000    -2.311905861000     1.007825032230
         H            1.432889819000     0.657149851000    -3.450341940000     1.007825032230
         H           -0.443421751000    -0.582687497000    -3.540498734000     1.007825032230

  Nuclear repulsion =  261.676331691510882

  ==> Basis Set <==

  Basis Set: 6-31G*
    Blend: 6-31G*
    Number of shells: 52
    Number of basis functions: 106
    Number of Cartesian functions: 106
    Spherical Harmonics?: false
    Max angular momentum: 2

  ==> DFJKGrad: Density-Fitted SCF Gradients <==

    Gradient:                    1
    J tasked:                  Yes
    K tasked:                  Yes
    wK tasked:                  No
    OpenMP threads:              4
    Integrals threads:           4
    Memory [MiB]:              375
    Schwarz Cutoff:          1E-12
    Fitting Condition:       1E-10

   => Auxiliary Basis Set <=

  Basis Set: (6-31G* AUX)
    Blend: CC-PVDZ-JKFIT
    Number of shells: 216
    Number of basis functions: 686
    Number of Cartesian functions: 686
    Spherical Harmonics?: false
    Max angular momentum: 3


  -Total Gradient:
     Atom            X                  Y                   Z
    ------   -----------------  -----------------  -----------------
       1       -0.008981313070     0.009975201543    -0.019361534158
       2        0.016497950953     0.000823478775    -0.016575506209
       3       -0.011639056833    -0.009934366742     0.002578187177
       4        0.007645292607     0.001687320598     0.017695051878
       5        0.023278293634     0.008161480187     0.014557377143
       6       -0.011777358837     0.012685884992     0.015756684079
       7       -0.000183038251    -0.012397754275     0.024448033295
       8       -0.004148189475     0.002207773312     0.010238967875
       9       -0.004806196386    -0.008850415081     0.001155945651
      10        0.002683140062     0.013392519289    -0.001552161416
      11       -0.001616592214     0.008100902872    -0.021840609892
      12       -0.005003146520    -0.009511429132    -0.000500396243
      13       -0.004549558009    -0.000702090811    -0.007199679056
      14        0.002599772340    -0.015638505525    -0.019400360124


*** tstop() called on sb061.cluster at Thu Sep 14 14:43:17 2023
Module time:
	user time   =       2.22 seconds =       0.04 minutes
	system time =       0.23 seconds =       0.00 minutes
	total time  =          0 seconds =       0.00 minutes
Total time:
	user time   =       6.64 seconds =       0.11 minutes
	system time =       0.73 seconds =       0.01 minutes
	total time  =          2 seconds =       0.03 minutes

    			-----------------------------------------

    			 OPTKING 3.0: for geometry optimizations 

    			     By R.A. King, Bethel University     

    			        with contributions from          

    			    A.V. Copan, J. Cayton, A. Heide      

    			-----------------------------------------

    
	                            ===> Fragment 1 <== 

	 Z (Atomic Numbers)          Masses                          Geom                  
	       8.000000            15.994915         -0.83474110  0.76657628  0.42358600   
	       6.000000            12.000000          1.79967305  1.01754748 -0.06152046   
	       6.000000            12.000000          2.16180939  2.33021103 -2.59720876   
	       8.000000            15.994915          4.66210124  3.35103364 -2.65780470   
	       6.000000            12.000000          1.86243859  0.48621643 -4.79015177   
	       8.000000            15.994915         -0.74974062  0.07767584 -5.28924480   
	       1.000000             1.007825         -1.00659471 -0.07457079  2.04843314   
	       1.000000             1.007825          2.62715857  2.12270224  1.47992880   
	       1.000000             1.007825          2.63096253 -0.87631111 -0.07790175   
	       1.000000             1.007825          0.86018686  3.93031391 -2.78163293   
	       1.000000             1.007825          4.84262459  4.17214033 -4.28357743   
	       1.000000             1.007825          2.72749377 -1.34455408 -4.36886891   
	       1.000000             1.007825          2.70776933  1.24183324 -6.52020131   
	       1.000000             1.007825         -0.83794567 -1.10111979 -6.69057295   

	 - Coordinate -           - BOHR/RAD -       - ANG/DEG -
	 H(1,8)           =         3.865189           2.045370
	 H(1,9)           =         3.868032           2.046874
	 H(4,10)          =         3.847785           2.036160
	 H(6,12)          =         3.867944           2.046828
	 H(6,13)          =         3.850311           2.037497
	 R(1,2)           =         2.690437           1.423718
	 R(1,7)           =         1.837713           0.972476
	 R(2,3)           =         2.878184           1.523069
	 R(2,8)           =         2.069339           1.095047
	 R(2,9)           =         2.068335           1.094516
	 R(3,4)           =         2.701335           1.429485
	 R(3,5)           =         2.880788           1.524447
	 R(3,10)          =         2.070885           1.095865
	 R(4,11)          =         1.830285           0.968545
	 R(5,6)           =         2.690628           1.423819
	 R(5,12)          =         2.068217           1.094453
	 R(5,13)          =         2.068481           1.094593
	 R(6,14)          =         1.833319           0.970151
	 B(1,2,3)         =         1.901381         108.941128
	 B(1,2,8)         =         1.882899         107.882144
	 B(1,2,9)         =         1.885524         108.032573
	 B(2,1,7)         =         1.868878         107.078802
	 B(2,3,4)         =         1.884483         107.972939
	 B(2,3,5)         =         1.945114         111.446835
	 B(2,3,10)        =         1.930256         110.595500
	 B(3,2,8)         =         1.941610         111.246046
	 B(3,2,9)         =         1.939122         111.103531
	 B(3,4,11)        =         1.855370         106.304889
	 B(3,5,6)         =         1.916953         109.833301
	 B(3,5,12)        =         1.947749         111.597817
	 B(3,5,13)        =         1.939477         111.123820
	 B(4,3,5)         =         1.897583         108.723483
	 B(4,3,10)        =         1.862696         106.724607
	 B(5,3,10)        =         1.940646         111.190826
	 B(5,6,14)        =         1.860975         106.626041
	 B(6,5,12)        =         1.885405         108.025725
	 B(6,5,13)        =         1.872429         107.282278
	 B(8,2,9)         =         1.911546         109.523508
	 B(12,5,13)       =         1.899479         108.832111
	 D(1,2,3,4)       =         2.792527         159.999999
	 D(1,2,3,5)       =        -1.407760         -80.658726
	 D(1,2,3,10)      =         0.760450          43.570591
	 D(2,3,4,11)      =         3.141593         180.000000
	 D(2,3,5,6)       =         1.396263          79.999995
	 D(2,3,5,12)      =        -0.694191         -39.774211
	 D(2,3,5,13)      =        -2.817853        -161.451070
	 D(3,2,1,7)       =         3.141593         180.000000
	 D(3,5,6,14)      =         3.141593         180.000000
	 D(4,3,2,8)       =         0.719091          41.200907
	 D(4,3,2,9)       =        -1.415496         -81.101923
	 D(4,3,5,6)       =        -2.811824        -161.105626
	 D(4,3,5,12)      =         1.380907          79.120168
	 D(4,3,5,13)      =        -0.742754         -42.556691
	 D(5,3,2,8)       =         2.801990         160.542183
	 D(5,3,2,9)       =         0.667403          38.239353
	 D(5,3,4,11)      =         1.028825          58.947351
	 D(6,5,3,10)      =        -0.766081         -43.893181
	 D(7,1,2,8)       =        -1.031780         -59.116632
	 D(7,1,2,9)       =         1.033225          59.199419
	 D(8,2,3,10)      =        -1.312985         -75.228500
	 D(9,2,3,10)      =         2.835613         162.468670
	 D(10,3,4,11)     =        -1.066005         -61.077613
	 D(10,3,5,12)     =        -2.856535        -163.667387
	 D(10,3,5,13)     =         1.302989          74.655754
	 D(12,5,6,14)     =        -1.013531         -58.071027
	 D(13,5,6,14)     =         1.031608          59.106768


	        --- Internal Coordinate Step in ANG or DEG, aJ/ANG or AJ/DEG ---
	-------------------------------------------------------------------------------
	           Coordinate      Previous         Force          Change          New 
	           ----------      --------        ------          ------        ------
	               H(1,8)       2.04537       -0.00756        0.01583       2.06120
	               H(1,9)       2.04687       -0.01068        0.01655       2.06343
	              H(4,10)       2.03616       -0.00848        0.02537       2.06153
	              H(6,12)       2.04683       -0.00911        0.01719       2.06402
	              H(6,13)       2.03750       -0.00462        0.01672       2.05421
	               R(1,2)       1.42372       -0.06765       -0.01463       1.40909
	               R(1,7)       0.97248       -0.22498       -0.02667       0.94581
	               R(2,3)       1.52307       -0.03197       -0.00654       1.51653
	               R(2,8)       1.09505       -0.05322       -0.01182       1.08322
	               R(2,9)       1.09452       -0.04277       -0.01045       1.08407
	               R(3,4)       1.42948       -0.06995       -0.01332       1.41616
	               R(3,5)       1.52445       -0.00234       -0.00048       1.52397
	              R(3,10)       1.09586       -0.06622       -0.01491       1.08096
	              R(4,11)       0.96854       -0.18846       -0.02201       0.94653
	               R(5,6)       1.42382       -0.07086       -0.01474       1.40908
	              R(5,12)       1.09445       -0.04446       -0.01059       1.08387
	              R(5,13)       1.09459       -0.02874       -0.00714       1.08745
	              R(6,14)       0.97015       -0.20398       -0.02397       0.94618
	             B(1,2,3)     108.94113       -0.00045       -0.60893     108.33220
	             B(1,2,8)     107.88214        0.00061        3.03061     110.91276
	             B(1,2,9)     108.03257        0.00054        3.01082     111.04339
	             B(2,1,7)     107.07880        0.00033        1.44771     108.52651
	             B(2,3,4)     107.97294       -0.00085       -3.11296     104.85998
	             B(2,3,5)     111.44684        0.00107        3.29992     114.74676
	            B(2,3,10)     110.59550       -0.00037       -2.47457     108.12093
	             B(3,2,8)     111.24605       -0.00044       -2.98047     108.26558
	             B(3,2,9)     111.10353       -0.00018       -1.27614     109.82739
	            B(3,4,11)     106.30489        0.00063        2.75535     109.06023
	             B(3,5,6)     109.83330       -0.00038       -0.40853     109.42477
	            B(3,5,12)     111.59782       -0.00033       -2.07389     109.52393
	            B(3,5,13)     111.12382       -0.00033       -2.27402     108.84980
	             B(4,3,5)     108.72348       -0.00001        0.80282     109.52630
	            B(4,3,10)     106.72461        0.00067        3.85007     110.57467
	            B(5,3,10)     111.19083       -0.00054       -2.24642     108.94440
	            B(5,6,14)     106.62604        0.00053        2.30102     108.92706
	            B(6,5,12)     108.02572        0.00058        3.08023     111.10596
	            B(6,5,13)     107.28228        0.00052        2.78944     110.07171
	             B(8,2,9)     109.52351       -0.00003       -1.10621     108.41729
	           B(12,5,13)     108.83211       -0.00000       -1.01073     107.82138
	           D(1,2,3,4)     160.00000        0.00001        1.10246     161.10246
	           D(1,2,3,5)     -80.65873        0.00009        1.96474     -78.69398
	          D(1,2,3,10)      43.57059       -0.00010       -0.46305      43.10754
	          D(2,3,4,11)     180.00000        0.00048        4.39296     184.39296
	           D(2,3,5,6)      80.00000        0.00010       -1.74213      78.25786
	          D(2,3,5,12)     -39.77421       -0.00017       -3.98448     -43.75869
	          D(2,3,5,13)    -161.45107        0.00030        0.03526    -161.41581
	           D(3,2,1,7)     180.00000        0.00008        0.17875     180.17875
	          D(3,5,6,14)     180.00000        0.00001        1.04646     181.04646
	           D(4,3,2,8)      41.20091       -0.00019       -0.45250      40.74840
	           D(4,3,2,9)     -81.10192        0.00028        3.64265     -77.45927
	           D(4,3,5,6)    -161.10563       -0.00031       -3.05001    -164.15564
	          D(4,3,5,12)      79.12017       -0.00057       -5.29236      73.82781
	          D(4,3,5,13)     -42.55669       -0.00011       -1.27262     -43.82932
	           D(5,3,2,8)     160.54218       -0.00011        0.40978     160.95197
	           D(5,3,2,9)      38.23935        0.00036        4.50494      42.74429
	          D(5,3,4,11)      58.94735       -0.00030        1.83011      60.77746
	          D(6,5,3,10)     -43.89318        0.00019        0.79865     -43.09453
	           D(7,1,2,8)     -59.11663       -0.00035       -2.01432     -61.13095
	           D(7,1,2,9)      59.19942        0.00024        0.29328      59.49270
	          D(8,2,3,10)     -75.22850       -0.00030       -2.01801     -77.24651
	          D(9,2,3,10)     162.46867        0.00017        2.07715     164.54582
	         D(10,3,4,11)     -61.07761       -0.00003        1.78563     -59.29198
	         D(10,3,5,12)    -163.66739       -0.00007       -1.44370    -165.11108
	         D(10,3,5,13)      74.65575        0.00039        2.57604      77.23179
	         D(12,5,6,14)     -58.07103       -0.00026        0.17973     -57.89130
	         D(13,5,6,14)      59.10677        0.00031        2.36267      61.46944
	-------------------------------------------------------------------------------

	                                 ==> Convergence Check <==                                  
    
	Measures of convergence in internal coordinates in au.
    
	Criteria marked as inactive (o), active & met (*), and active & unmet ( ).

	----------------------------------------------------------------------------------------------
	   Step    Total Energy     Delta E     Max Force     RMS Force      Max Disp      RMS Disp   
	----------------------------------------------------------------------------------------------
	  Convergence Criteria     1.00e-06 *    3.00e-04 *             o    1.20e-03 *             o
	----------------------------------------------------------------------------------------------
	     1    -342.79360726   -3.43e+02      2.73e-02      7.35e-03 o    9.24e-02      3.89e-02 o  ~
	----------------------------------------------------------------------------------------------

Next Geometry in Ang 
	Fragment 1 (Ang)

	    O  -0.4295395790   0.3990028480   0.2158670987
	    C   0.9510004005   0.5453706811  -0.0254066945
	    C   1.1315994186   1.1938475338  -1.3843479970
	    O   2.4510915270   1.7078682312  -1.3690064918
	    C   0.9666240404   0.2493473999  -2.5689042665
	    O  -0.4048511892   0.0259095926  -2.8026254685
	    H  -0.5454162166  -0.0027961637   1.0642109107
	    H   1.4079993602   1.1853102787   0.7195777730
	    H   1.4534231407  -0.4150541021  -0.0066023259
	    H   0.4124135570   1.9960336738  -1.4723188146
	    H   2.6050854992   2.1880683110  -2.1700176830
	    H   1.4844752980  -0.6808046772  -2.3653924435
	    H   1.4257776481   0.7010929646  -3.4450602660
	    H  -0.4987861559  -0.5736050617  -3.5285867722


    Structure for next step:
    Molecular point group: c1
    Full point group: C1

    Geometry (in Angstrom), charge = 0, multiplicity = 1:

    O           -0.429539578954     0.399002847984     0.215867098703
    C            0.951000400500     0.545370681108    -0.025406694518
    C            1.131599418584     1.193847533756    -1.384347997028
    O            2.451091526960     1.707868231216    -1.369006491762
    C            0.966624040399     0.249347399929    -2.568904266450
    O           -0.404851189203     0.025909592614    -2.802625468543
    H           -0.545416216608    -0.002796163706     1.064210910659
    H            1.407999360190     1.185310278698     0.719577772984
    H            1.453423140698    -0.415054102147    -0.006602325874
    H            0.412413557032     1.996033673825    -1.472318814638
    H            2.605085499162     2.188068311005    -2.170017682953
    H            1.484475298036    -0.680804677179    -2.365392443463
    H            1.425777648105     0.701092964593    -3.445060265963
    H           -0.498786155902    -0.573605061695    -3.528586772154


Scratch directory: /mnt/storage/nobackup/nca121/scratch_dir/
gradient() will perform analytic gradient computation.
   => Libint2 <=

    Primary   basis highest AM E, G, H:  5, 4, 3
    Auxiliary basis highest AM E, G, H:  6, 5, 4
    Onebody   basis highest AM E, G, H:  6, 5, 4
    Solid Harmonics ordering:            gaussian

*** tstart() called on sb061.cluster
*** at Thu Sep 14 14:43:18 2023

   => Loading Basis Set <=

    Name: 6-31G*
    Role: ORBITAL
    Keyword: BASIS
    atoms 1, 4, 6 entry O          line   145 file /mnt/nfs/home/nca121/.conda/envs/p4env/share/psi4/basis/6-31gs.gbs 
    atoms 2-3, 5  entry C          line   111 file /mnt/nfs/home/nca121/.conda/envs/p4env/share/psi4/basis/6-31gs.gbs 
    atoms 7-14    entry H          line    44 file /mnt/nfs/home/nca121/.conda/envs/p4env/share/psi4/basis/6-31gs.gbs 


         ---------------------------------------------------------
                                   SCF
               by Justin Turney, Rob Parrish, Andy Simmonett
                          and Daniel G. A. Smith
                              RHF Reference
                        4 Threads,    500 MiB Core
         ---------------------------------------------------------

  ==> Geometry <==

    Molecular point group: c1
    Full point group: C1

    Geometry (in Angstrom), charge = 0, multiplicity = 1:

       Center              X                  Y                   Z               Mass       
    ------------   -----------------  -----------------  -----------------  -----------------
         O           -0.429539578954     0.399002847984     0.215867098703    15.994914619570
         C            0.951000400500     0.545370681108    -0.025406694518    12.000000000000
         C            1.131599418584     1.193847533756    -1.384347997028    12.000000000000
         O            2.451091526960     1.707868231216    -1.369006491762    15.994914619570
         C            0.966624040399     0.249347399929    -2.568904266450    12.000000000000
         O           -0.404851189203     0.025909592614    -2.802625468543    15.994914619570
         H           -0.545416216608    -0.002796163706     1.064210910659     1.007825032230
         H            1.407999360190     1.185310278698     0.719577772984     1.007825032230
         H            1.453423140698    -0.415054102147    -0.006602325874     1.007825032230
         H            0.412413557032     1.996033673825    -1.472318814638     1.007825032230
         H            2.605085499162     2.188068311005    -2.170017682953     1.007825032230
         H            1.484475298036    -0.680804677179    -2.365392443463     1.007825032230
         H            1.425777648105     0.701092964593    -3.445060265963     1.007825032230
         H           -0.498786155902    -0.573605061695    -3.528586772154     1.007825032230

  Running in c1 symmetry.

  Rotational constants: A =      0.11389  B =      0.04198  C =      0.03243 [cm^-1]
  Rotational constants: A =   3414.48388  B =   1258.67514  C =    972.09127 [MHz]
  Nuclear repulsion =  263.621388593892277

  Charge       = 0
  Multiplicity = 1
  Electrons    = 50
  Nalpha       = 25
  Nbeta        = 25

  ==> Algorithm <==

  SCF Algorithm Type is DF.
  DIIS enabled.
  MOM disabled.
  Fractional occupation disabled.
  Guess Type is READ.
  Energy threshold   = 1.00e-08
  Density threshold  = 1.00e-08
  Integral threshold = 1.00e-12

  ==> Primary Basis <==

  Basis Set: 6-31G*
    Blend: 6-31G*
    Number of shells: 52
    Number of basis functions: 106
    Number of Cartesian functions: 106
    Spherical Harmonics?: false
    Max angular momentum: 2

   => Loading Basis Set <=

    Name: (6-31G* AUX)
    Role: JKFIT
    Keyword: DF_BASIS_SCF
    atoms 1, 4, 6 entry O          line   221 file /mnt/nfs/home/nca121/.conda/envs/p4env/share/psi4/basis/cc-pvdz-jkfit.gbs 
    atoms 2-3, 5  entry C          line   121 file /mnt/nfs/home/nca121/.conda/envs/p4env/share/psi4/basis/cc-pvdz-jkfit.gbs 
    atoms 7-14    entry H          line    51 file /mnt/nfs/home/nca121/.conda/envs/p4env/share/psi4/basis/cc-pvdz-jkfit.gbs 

   => Loading Basis Set <=

    Name: 6-31G*
    Role: ORBITAL
    Keyword: BASIS
    atoms 1, 4, 6 entry O          line   145 file /mnt/nfs/home/nca121/.conda/envs/p4env/share/psi4/basis/6-31gs.gbs 
    atoms 2-3, 5  entry C          line   111 file /mnt/nfs/home/nca121/.conda/envs/p4env/share/psi4/basis/6-31gs.gbs 
    atoms 7-14    entry H          line    44 file /mnt/nfs/home/nca121/.conda/envs/p4env/share/psi4/basis/6-31gs.gbs 

  Reading orbitals from file /mnt/storage/nobackup/nca121/scratch_dir/out.mol.38196.180.npy, no projection.

  ==> Integral Setup <==

  DFHelper Memory: AOs need 0.063 GiB; user supplied 0.366 GiB. 
  Using in-core AOs.

  ==> MemDFJK: Density-Fitted J/K Matrices <==

    J tasked:                   Yes
    K tasked:                   Yes
    wK tasked:                   No
    OpenMP threads:               4
    Memory [MiB]:               375
    Algorithm:                 Core
    Schwarz Cutoff:           1E-12
    Mask sparsity (%):       1.2460
    Fitting Condition:        1E-10

   => Auxiliary Basis Set <=

  Basis Set: (6-31G* AUX)
    Blend: CC-PVDZ-JKFIT
    Number of shells: 216
    Number of basis functions: 686
    Number of Cartesian functions: 686
    Spherical Harmonics?: false
    Max angular momentum: 3

  Minimum eigenvalue in the overlap matrix is 3.2448070979E-03.
  Reciprocal condition number of the overlap matrix is 4.5008058109E-04.
    Using symmetric orthogonalization.

  ==> Pre-Iterations <==

  SCF Guess: Orbitals guess was supplied from a previous computation.

   -------------------------------------------------------
    Irrep   Nso     Nmo     Nalpha   Nbeta   Ndocc  Nsocc
   -------------------------------------------------------
     A        106     106      25      25      25       0
   -------------------------------------------------------
    Total     106     106      25      25      25       0
   -------------------------------------------------------

  ==> Iterations <==

                           Total Energy        Delta E     RMS |[F,P]|

   @DF-RHF iter   0:  -342.87526187992700   -3.42875e+02   1.35758e-03 
   @DF-RHF iter   1:  -342.80009512135257    7.51668e-02   2.39275e-04 ADIIS/DIIS
   @DF-RHF iter   2:  -342.80060683935011   -5.11718e-04   8.95578e-05 DIIS
   @DF-RHF iter   3:  -342.80068163288638   -7.47935e-05   4.07783e-05 DIIS
   @DF-RHF iter   4:  -342.80069688733181   -1.52544e-05   9.77761e-06 DIIS
   @DF-RHF iter   5:  -342.80069796099906   -1.07367e-06   3.20548e-06 DIIS
   @DF-RHF iter   6:  -342.80069810149064   -1.40492e-07   1.02335e-06 DIIS
   @DF-RHF iter   7:  -342.80069811604642   -1.45558e-08   2.67790e-07 DIIS
   @DF-RHF iter   8:  -342.80069811723899   -1.19257e-09   7.82634e-08 DIIS
   @DF-RHF iter   9:  -342.80069811729652   -5.75255e-11   2.77715e-08 DIIS
   @DF-RHF iter  10:  -342.80069811730488   -8.35598e-12   6.38009e-09 DIIS
  Energy and wave function converged.


  ==> Post-Iterations <==

    Orbital Energies [Eh]
    ---------------------

    Doubly Occupied:                                                      

       1A    -20.562044     2A    -20.555583     3A    -20.550150  
       4A    -11.273778     5A    -11.273097     6A    -11.265185  
       7A     -1.376260     8A     -1.357249     9A     -1.353185  
      10A     -1.024575    11A     -0.922670    12A     -0.803422  
      13A     -0.730843    14A     -0.687737    15A     -0.673092  
      16A     -0.657784    17A     -0.618030    18A     -0.581917  
      19A     -0.566357    20A     -0.528296    21A     -0.521109  
      22A     -0.473050    23A     -0.451087    24A     -0.436106  
      25A     -0.428335  

    Virtual:                                                              

      26A      0.215333    27A      0.222969    28A      0.242173  
      29A      0.280878    30A      0.310866    31A      0.317775  
      32A      0.337918    33A      0.349585    34A      0.408625  
      35A      0.411984    36A      0.421307    37A      0.480205  
      38A      0.507149    39A      0.740462    40A      0.745525  
      41A      0.807300    42A      0.844151    43A      0.859701  
      44A      0.892597    45A      0.952462    46A      0.980029  
      47A      1.038713    48A      1.064056    49A      1.080150  
      50A      1.104002    51A      1.123741    52A      1.129218  
      53A      1.149150    54A      1.184747    55A      1.198043  
      56A      1.226303    57A      1.250681    58A      1.263267  
      59A      1.278292    60A      1.287529    61A      1.334060  
      62A      1.344160    63A      1.388785    64A      1.456994  
      65A      1.487833    66A      1.571891    67A      1.691539  
      68A      1.740380    69A      1.741303    70A      1.797822  
      71A      1.916142    72A      1.929251    73A      1.947212  
      74A      1.993785    75A      2.036306    76A      2.051414  
      77A      2.079667    78A      2.156162    79A      2.222602  
      80A      2.232786    81A      2.284471    82A      2.387522  
      83A      2.407524    84A      2.426136    85A      2.438581  
      86A      2.487469    87A      2.565663    88A      2.670385  
      89A      2.710597    90A      2.752684    91A      2.816137  
      92A      2.850196    93A      2.878984    94A      2.890002  
      95A      2.927335    96A      3.026202    97A      3.059290  
      98A      3.227311    99A      3.269750   100A      3.331846  
     101A      4.066665   102A      4.277091   103A      4.308470  
     104A      4.622616   105A      4.829737   106A      4.996259  

    Final Occupation by Irrep:
              A 
    DOCC [    25 ]
    NA   [    25 ]
    NB   [    25 ]

  @DF-RHF Final Energy:  -342.80069811730488

   => Energetics <=

    Nuclear Repulsion Energy =            263.6213885938922772
    One-Electron Energy =                -993.5022949852406100
    Two-Electron Energy =                 387.0802082740435139
    Total Energy =                       -342.8006981173048757

Computation Completed


Properties will be evaluated at   0.000000,   0.000000,   0.000000 [a0]

Properties computed using the SCF density matrix


 Multipole Moments:

 ------------------------------------------------------------------------------------
     Multipole            Electronic (a.u.)      Nuclear  (a.u.)        Total (a.u.)
 ------------------------------------------------------------------------------------

 L = 1.  Multiply by 2.5417464519 to convert [e a0] to [Debye]
 Dipole X            :        -73.1533302           73.6500374            0.4967072
 Dipole Y            :        -63.5047828           63.1015161           -0.4032667
 Dipole Z            :        125.6545554         -126.0868021           -0.4322467
 Magnitude           :                                                    0.7721265

 ------------------------------------------------------------------------------------

*** tstop() called on sb061.cluster at Thu Sep 14 14:43:19 2023
Module time:
	user time   =       3.39 seconds =       0.06 minutes
	system time =       0.22 seconds =       0.00 minutes
	total time  =          1 seconds =       0.02 minutes
Total time:
	user time   =      10.96 seconds =       0.18 minutes
	system time =       1.04 seconds =       0.02 minutes
	total time  =          4 seconds =       0.07 minutes

*** tstart() called on sb061.cluster
*** at Thu Sep 14 14:43:19 2023


         ------------------------------------------------------------
                                   SCF GRAD                          
                          Rob Parrish, Justin Turney,                
                       Andy Simmonett, and Alex Sokolov              
         ------------------------------------------------------------

  ==> Geometry <==

    Molecular point group: c1
    Full point group: C1

    Geometry (in Angstrom), charge = 0, multiplicity = 1:

       Center              X                  Y                   Z               Mass       
    ------------   -----------------  -----------------  -----------------  -----------------
         O           -0.429539578954     0.399002847984     0.215867098703    15.994914619570
         C            0.951000400500     0.545370681108    -0.025406694518    12.000000000000
         C            1.131599418584     1.193847533756    -1.384347997028    12.000000000000
         O            2.451091526960     1.707868231216    -1.369006491762    15.994914619570
         C            0.966624040399     0.249347399929    -2.568904266450    12.000000000000
         O           -0.404851189203     0.025909592614    -2.802625468543    15.994914619570
         H           -0.545416216608    -0.002796163706     1.064210910659     1.007825032230
         H            1.407999360190     1.185310278698     0.719577772984     1.007825032230
         H            1.453423140698    -0.415054102147    -0.006602325874     1.007825032230
         H            0.412413557032     1.996033673825    -1.472318814638     1.007825032230
         H            2.605085499162     2.188068311005    -2.170017682953     1.007825032230
         H            1.484475298036    -0.680804677179    -2.365392443463     1.007825032230
         H            1.425777648105     0.701092964593    -3.445060265963     1.007825032230
         H           -0.498786155902    -0.573605061695    -3.528586772154     1.007825032230

  Nuclear repulsion =  263.621388593892277

  ==> Basis Set <==

  Basis Set: 6-31G*
    Blend: 6-31G*
    Number of shells: 52
    Number of basis functions: 106
    Number of Cartesian functions: 106
    Spherical Harmonics?: false
    Max angular momentum: 2

  ==> DFJKGrad: Density-Fitted SCF Gradients <==

    Gradient:                    1
    J tasked:                  Yes
    K tasked:                  Yes
    wK tasked:                  No
    OpenMP threads:              4
    Integrals threads:           4
    Memory [MiB]:              375
    Schwarz Cutoff:          1E-12
    Fitting Condition:       1E-10

   => Auxiliary Basis Set <=

  Basis Set: (6-31G* AUX)
    Blend: CC-PVDZ-JKFIT
    Number of shells: 216
    Number of basis functions: 686
    Number of Cartesian functions: 686
    Spherical Harmonics?: false
    Max angular momentum: 3


  -Total Gradient:
     Atom            X                  Y                   Z
    ------   -----------------  -----------------  -----------------
       1       -0.006986378789     0.000642526293    -0.000842624826
       2        0.011487777211     0.000355592068    -0.000315109980
       3       -0.007870646418    -0.003435799625    -0.000873417717
       4        0.003460173475     0.003940299990     0.002549992621
       5        0.010572262863     0.000940584820     0.000503727500
       6       -0.007971616977    -0.001475254775    -0.001042292629
       7        0.001600693358     0.000504829402    -0.000464002582
       8       -0.000884022665    -0.001190098682    -0.000289478520
       9       -0.002013735834     0.001752920171    -0.000950639686
      10        0.002400965216    -0.001910413176     0.000819345680
      11       -0.001188955523    -0.001229140824    -0.000280983804
      12       -0.002209199160     0.001710357267     0.000409773146
      13       -0.001196655886    -0.001135693464     0.000867834463
      14        0.000799339131     0.000529290536    -0.000092123665


*** tstop() called on sb061.cluster at Thu Sep 14 14:43:19 2023
Module time:
	user time   =       2.26 seconds =       0.04 minutes
	system time =       0.12 seconds =       0.00 minutes
	total time  =          0 seconds =       0.00 minutes
Total time:
	user time   =      13.23 seconds =       0.22 minutes
	system time =       1.16 seconds =       0.02 minutes
	total time  =          4 seconds =       0.07 minutes

    			-----------------------------------------

    			 OPTKING 3.0: for geometry optimizations 

    			     By R.A. King, Bethel University     

    			        with contributions from          

    			    A.V. Copan, J. Cayton, A. Heide      

    			-----------------------------------------

    
	                            ===> Fragment 1 <== 

	 Z (Atomic Numbers)          Masses                          Geom                  
	       8.000000            15.994915         -0.81171216  0.75400611  0.40792970   
	       6.000000            12.000000          1.79713030  1.03060122 -0.04801169   
	       6.000000            12.000000          2.13841298  2.25604487 -2.61603858   
	       8.000000            15.994915          4.63189169  3.22740322 -2.58704733   
	       6.000000            12.000000          1.82665470  0.47119830 -4.85452551   
	       8.000000            15.994915         -0.76505787  0.04896203 -5.29619457   
	       1.000000             1.007825         -1.03068727 -0.00528398  2.01106716   
	       1.000000             1.007825          2.66073318  2.23991180  1.35980492   
	       1.000000             1.007825          2.74657168 -0.78433858 -0.01247659   
	       1.000000             1.007825          0.77934867  3.77195698 -2.78227933   
	       1.000000             1.007825          4.92289813  4.13484985 -4.10073911   
	       1.000000             1.007825          2.80525175 -1.28653438 -4.46994390   
	       1.000000             1.007825          2.69432927  1.32487369 -6.51022039   
	       1.000000             1.007825         -0.94256923 -1.08395647 -6.66806261   

	 - Coordinate -           - BOHR/RAD -       - ANG/DEG -
	 H(1,8)           =         3.895107           2.061202
	 H(1,9)           =         3.899311           2.063427
	 H(4,10)          =         3.895734           2.061534
	 H(6,12)          =         3.900430           2.064018
	 H(6,13)          =         3.881903           2.054214
	 R(1,2)           =         2.662789           1.409087
	 R(1,7)           =         1.787322           0.945810
	 R(2,3)           =         2.865824           1.516529
	 R(2,8)           =         2.046995           1.083223
	 R(2,9)           =         2.048587           1.084065
	 R(3,4)           =         2.676156           1.416161
	 R(3,5)           =         2.879877           1.523966
	 R(3,10)          =         2.042714           1.080958
	 R(4,11)          =         1.788689           0.946533
	 R(5,6)           =         2.662767           1.409076
	 R(5,12)          =         2.048214           1.083868
	 R(5,13)          =         2.054981           1.087449
	 R(6,14)          =         1.788026           0.946183
	 B(1,2,3)         =         1.890754         108.332196
	 B(1,2,8)         =         1.935793         110.912755
	 B(1,2,9)         =         1.938073         111.043395
	 B(2,1,7)         =         1.894145         108.526509
	 B(2,3,4)         =         1.830152         104.859983
	 B(2,3,5)         =         2.002709         114.746759
	 B(2,3,10)        =         1.887066         108.120926
	 B(3,2,8)         =         1.889591         108.265576
	 B(3,2,9)         =         1.916850         109.827393
	 B(3,4,11)        =         1.903460         109.060234
	 B(3,5,6)         =         1.909822         109.424768
	 B(3,5,12)        =         1.911553         109.523928
	 B(3,5,13)        =         1.899787         108.849799
	 B(4,3,5)         =         1.911595         109.526299
	 B(4,3,10)        =         1.929892         110.574674
	 B(5,3,10)        =         1.901439         108.944403
	 B(5,6,14)        =         1.901136         108.927061
	 B(6,5,12)        =         1.939165         111.105959
	 B(6,5,13)        =         1.921114         110.071714
	 B(8,2,9)         =         1.892239         108.417294
	 B(12,5,13)       =         1.881838         107.821381
	 D(1,2,3,4)       =         2.811768         161.102455
	 D(1,2,3,5)       =        -1.373469         -78.693981
	 D(1,2,3,10)      =         0.752369          43.107542
	 D(2,3,4,11)      =         3.218264         184.392962
	 D(2,3,5,6)       =         1.365857          78.257863
	 D(2,3,5,12)      =        -0.763733         -43.758688
	 D(2,3,5,13)      =        -2.817237        -161.415814
	 D(3,2,1,7)       =         3.144712         180.178753
	 D(3,5,6,14)      =         3.159857         181.046456
	 D(4,3,2,8)       =         0.711194          40.748404
	 D(4,3,2,9)       =        -1.351919         -77.459270
	 D(4,3,5,6)       =        -2.865056        -164.155639
	 D(4,3,5,12)      =         1.288538          73.827810
	 D(4,3,5,13)      =        -0.764966         -43.829316
	 D(5,3,2,8)       =         2.809142         160.951967
	 D(5,3,2,9)       =         0.746029          42.744293
	 D(5,3,4,11)      =         1.060767          60.777464
	 D(6,5,3,10)      =        -0.752141         -43.094531
	 D(7,1,2,8)       =        -1.066936         -61.130947
	 D(7,1,2,9)       =         1.038344          59.492702
	 D(8,2,3,10)      =        -1.348206         -77.246509
	 D(9,2,3,10)      =         2.871866         164.545817
	 D(10,3,4,11)     =        -1.034840         -59.291978
	 D(10,3,5,12)     =        -2.881732        -165.111083
	 D(10,3,5,13)     =         1.347949          77.231792
	 D(12,5,6,14)     =        -1.010394         -57.891301
	 D(13,5,6,14)     =         1.072844          61.469442


	        --- Internal Coordinate Step in ANG or DEG, aJ/ANG or AJ/DEG ---
	-------------------------------------------------------------------------------
	           Coordinate      Previous         Force          Change          New 
	           ----------      --------        ------          ------        ------
	               H(1,8)       2.06120       -0.00787       -0.00091       2.06029
	               H(1,9)       2.06343       -0.00850       -0.00200       2.06143
	              H(4,10)       2.06153        0.00241        0.00823       2.06977
	              H(6,12)       2.06402       -0.00862        0.00002       2.06404
	              H(6,13)       2.05421       -0.00897       -0.00135       2.05287
	               R(1,2)       1.40909       -0.02638       -0.00703       1.40205
	               R(1,7)       0.94581        0.00681       -0.00037       0.94544
	               R(2,3)       1.51653        0.03155        0.00679       1.52332
	               R(2,8)       1.08322        0.01656        0.00161       1.08483
	               R(2,9)       1.08407        0.02717        0.00378       1.08785
	               R(3,4)       1.41616       -0.02785       -0.00528       1.41088
	               R(3,5)       1.52397        0.00704        0.00157       1.52553
	              R(3,10)       1.08096        0.02354        0.00389       1.08484
	              R(4,11)       0.94653        0.00477       -0.00042       0.94611
	               R(5,6)       1.40908       -0.04500       -0.01015       1.39893
	              R(5,12)       1.08387        0.02680        0.00360       1.08747
	              R(5,13)       1.08745        0.02067        0.00259       1.09004
	              R(6,14)       0.94618        0.00283       -0.00076       0.94543
	             B(1,2,3)     108.33220        0.00022        1.09924     109.43144
	             B(1,2,8)     110.91276        0.00002        0.33036     111.24312
	             B(1,2,9)     111.04339       -0.00005        0.10033     111.14372
	             B(2,1,7)     108.52651        0.00021        1.07828     109.60479
	             B(2,3,4)     104.85998        0.00007        0.23671     105.09669
	             B(2,3,5)     114.74676        0.00004        0.14577     114.89253
	            B(2,3,10)     108.12093       -0.00003       -0.04196     108.07896
	             B(3,2,8)     108.26558       -0.00015       -0.91335     107.35222
	             B(3,2,9)     109.82739       -0.00003       -0.05578     109.77162
	            B(3,4,11)     109.06023        0.00020        1.08900     110.14923
	             B(3,5,6)     109.42477       -0.00007        0.01639     109.44115
	            B(3,5,12)     109.52393        0.00001        0.07569     109.59962
	            B(3,5,13)     108.84980       -0.00008       -0.62398     108.22582
	             B(4,3,5)     109.52630       -0.00012       -0.65624     108.87006
	            B(4,3,10)     110.57467        0.00006        0.81540     111.39008
	            B(5,3,10)     108.94440       -0.00001       -0.42150     108.52290
	            B(5,6,14)     108.92706        0.00011        0.61982     109.54688
	            B(6,5,12)     111.10596        0.00007        0.50636     111.61232
	            B(6,5,13)     110.07171        0.00010        0.44850     110.52022
	             B(8,2,9)     108.41729       -0.00001       -0.60739     107.80990
	           B(12,5,13)     107.82138       -0.00004       -0.45844     107.36294
	           D(1,2,3,4)     161.10246        0.00009        7.05316     168.15562
	           D(1,2,3,5)     -78.69398        0.00001        6.48418     -72.20980
	          D(1,2,3,10)      43.10754       -0.00001        6.00729      49.11483
	          D(2,3,4,11)     184.39296        0.00003        8.94811     193.34107
	           D(2,3,5,6)      78.25786       -0.00003       -4.18212      74.07574
	          D(2,3,5,12)     -43.75869       -0.00008       -4.86961     -48.62830
	          D(2,3,5,13)    -161.41581        0.00001       -4.00490    -165.42071
	           D(3,2,1,7)     180.17875        0.00003       -1.85078     178.32797
	          D(3,5,6,14)     181.04646       -0.00001        4.04120     185.08766
	           D(4,3,2,8)      40.74840        0.00003        6.55942      47.30782
	           D(4,3,2,9)     -77.45927        0.00015        7.84123     -69.61804
	           D(4,3,5,6)    -164.15564       -0.00000       -4.25035    -168.40599
	          D(4,3,5,12)      73.82781       -0.00005       -4.93784      68.88997
	          D(4,3,5,13)     -43.82932        0.00003       -4.07312     -47.90244
	           D(5,3,2,8)     160.95197       -0.00005        5.99044     166.94241
	           D(5,3,2,9)      42.74429        0.00007        7.27225      50.01655
	          D(5,3,4,11)      60.77746        0.00001        8.99555      69.77302
	          D(6,5,3,10)     -43.09453       -0.00001       -3.91195     -47.00648
	           D(7,1,2,8)     -61.13095       -0.00001       -2.08715     -63.21810
	           D(7,1,2,9)      59.49270       -0.00004       -2.56595      56.92675
	          D(8,2,3,10)     -77.24651       -0.00006        5.51354     -71.73296
	          D(9,2,3,10)     164.54582        0.00006        6.79536     171.34117
	         D(10,3,4,11)     -59.29198        0.00006        9.43201     -49.85997
	         D(10,3,5,12)    -165.11108       -0.00006       -4.59944    -169.71052
	         D(10,3,5,13)      77.23179        0.00002       -3.73472      73.49707
	         D(12,5,6,14)     -57.89130        0.00000        4.47658     -53.41472
	         D(13,5,6,14)      61.46944        0.00007        4.52354      65.99298
	-------------------------------------------------------------------------------

	                                 ==> Convergence Check <==                                  
    
	Measures of convergence in internal coordinates in au.
    
	Criteria marked as inactive (o), active & met (*), and active & unmet ( ).

	----------------------------------------------------------------------------------------------
	   Step    Total Energy     Delta E     Max Force     RMS Force      Max Disp      RMS Disp   
	----------------------------------------------------------------------------------------------
	  Convergence Criteria     1.00e-06 *    3.00e-04 *             o    1.20e-03 *             o
	----------------------------------------------------------------------------------------------
	     2    -342.80069812   -7.09e-03      5.46e-03      1.57e-03 o    1.65e-01      6.44e-02 o  ~
	----------------------------------------------------------------------------------------------

Next Geometry in Ang 
	Fragment 1 (Ang)

	    O  -0.4326558512   0.3425689499   0.1693973202
	    C   0.9377666634   0.5636966409  -0.0275693570
	    C   1.1574266192   1.1972017864  -1.3953885693
	    O   2.4997480045   1.6316017415  -1.3878688151
	    C   0.9495456757   0.2575741427  -2.5790851991
	    O  -0.4190182915   0.0289879070  -2.7573664142
	    H  -0.5695857306  -0.0741511996   1.0069269977
	    H   1.3359888995   1.2482970721   0.7137829029
	    H   1.4991575455  -0.3654976938   0.0420518166
	    H   0.4718816954   2.0322200357  -1.4936728410
	    H   2.6579265764   2.2139323322  -2.1165640746
	    H   1.4916031313  -0.6695913402  -2.4084221471
	    H   1.3773457754   0.7260605501  -3.4654840363
	    H  -0.5462339640  -0.6133094150  -3.4393510246


    Structure for next step:
    Molecular point group: c1
    Full point group: C1

    Geometry (in Angstrom), charge = 0, multiplicity = 1:

    O           -0.432655851154     0.342568949871     0.169397320204
    C            0.937766663390     0.563696640913    -0.027569357024
    C            1.157426619157     1.197201786397    -1.395388569307
    O            2.499748004451     1.631601741497    -1.387868815132
    C            0.949545675736     0.257574142703    -2.579085199137
    O           -0.419018291497     0.028987907024    -2.757366414217
    H           -0.569585730620    -0.074151199618     1.006926997653
    H            1.335988899484     1.248297072071     0.713782902890
    H            1.499157545545    -0.365497693776     0.042051816631
    H            0.471881695417     2.032220035742    -1.493672840953
    H            2.657926576448     2.213932332237    -2.116564074648
    H            1.491603131256    -0.669591340174    -2.408422147054
    H            1.377345775363     0.726060550069    -3.465484036311
    H           -0.546233963976    -0.613309414955    -3.439351024595


Scratch directory: /mnt/storage/nobackup/nca121/scratch_dir/
gradient() will perform analytic gradient computation.
   => Libint2 <=

    Primary   basis highest AM E, G, H:  5, 4, 3
    Auxiliary basis highest AM E, G, H:  6, 5, 4
    Onebody   basis highest AM E, G, H:  6, 5, 4
    Solid Harmonics ordering:            gaussian

*** tstart() called on sb061.cluster
*** at Thu Sep 14 14:43:19 2023

   => Loading Basis Set <=

    Name: 6-31G*
    Role: ORBITAL
    Keyword: BASIS
    atoms 1, 4, 6 entry O          line   145 file /mnt/nfs/home/nca121/.conda/envs/p4env/share/psi4/basis/6-31gs.gbs 
    atoms 2-3, 5  entry C          line   111 file /mnt/nfs/home/nca121/.conda/envs/p4env/share/psi4/basis/6-31gs.gbs 
    atoms 7-14    entry H          line    44 file /mnt/nfs/home/nca121/.conda/envs/p4env/share/psi4/basis/6-31gs.gbs 


         ---------------------------------------------------------
                                   SCF
               by Justin Turney, Rob Parrish, Andy Simmonett
                          and Daniel G. A. Smith
                              RHF Reference
                        4 Threads,    500 MiB Core
         ---------------------------------------------------------

  ==> Geometry <==

    Molecular point group: c1
    Full point group: C1

    Geometry (in Angstrom), charge = 0, multiplicity = 1:

       Center              X                  Y                   Z               Mass       
    ------------   -----------------  -----------------  -----------------  -----------------
         O           -0.432655851154     0.342568949871     0.169397320204    15.994914619570
         C            0.937766663390     0.563696640913    -0.027569357024    12.000000000000
         C            1.157426619157     1.197201786397    -1.395388569307    12.000000000000
         O            2.499748004451     1.631601741497    -1.387868815132    15.994914619570
         C            0.949545675736     0.257574142703    -2.579085199137    12.000000000000
         O           -0.419018291497     0.028987907024    -2.757366414217    15.994914619570
         H           -0.569585730620    -0.074151199618     1.006926997653     1.007825032230
         H            1.335988899484     1.248297072071     0.713782902890     1.007825032230
         H            1.499157545545    -0.365497693776     0.042051816631     1.007825032230
         H            0.471881695417     2.032220035742    -1.493672840953     1.007825032230
         H            2.657926576448     2.213932332237    -2.116564074648     1.007825032230
         H            1.491603131256    -0.669591340174    -2.408422147054     1.007825032230
         H            1.377345775363     0.726060550069    -3.465484036311     1.007825032230
         H           -0.546233963976    -0.613309414955    -3.439351024595     1.007825032230

  Running in c1 symmetry.

  Rotational constants: A =      0.11556  B =      0.04215  C =      0.03252 [cm^-1]
  Rotational constants: A =   3464.25722  B =   1263.50514  C =    975.05066 [MHz]
  Nuclear repulsion =  264.236206972532216

  Charge       = 0
  Multiplicity = 1
  Electrons    = 50
  Nalpha       = 25
  Nbeta        = 25

  ==> Algorithm <==

  SCF Algorithm Type is DF.
  DIIS enabled.
  MOM disabled.
  Fractional occupation disabled.
  Guess Type is READ.
  Energy threshold   = 1.00e-08
  Density threshold  = 1.00e-08
  Integral threshold = 1.00e-12

  ==> Primary Basis <==

  Basis Set: 6-31G*
    Blend: 6-31G*
    Number of shells: 52
    Number of basis functions: 106
    Number of Cartesian functions: 106
    Spherical Harmonics?: false
    Max angular momentum: 2

   => Loading Basis Set <=

    Name: (6-31G* AUX)
    Role: JKFIT
    Keyword: DF_BASIS_SCF
    atoms 1, 4, 6 entry O          line   221 file /mnt/nfs/home/nca121/.conda/envs/p4env/share/psi4/basis/cc-pvdz-jkfit.gbs 
    atoms 2-3, 5  entry C          line   121 file /mnt/nfs/home/nca121/.conda/envs/p4env/share/psi4/basis/cc-pvdz-jkfit.gbs 
    atoms 7-14    entry H          line    51 file /mnt/nfs/home/nca121/.conda/envs/p4env/share/psi4/basis/cc-pvdz-jkfit.gbs 

   => Loading Basis Set <=

    Name: 6-31G*
    Role: ORBITAL
    Keyword: BASIS
    atoms 1, 4, 6 entry O          line   145 file /mnt/nfs/home/nca121/.conda/envs/p4env/share/psi4/basis/6-31gs.gbs 
    atoms 2-3, 5  entry C          line   111 file /mnt/nfs/home/nca121/.conda/envs/p4env/share/psi4/basis/6-31gs.gbs 
    atoms 7-14    entry H          line    44 file /mnt/nfs/home/nca121/.conda/envs/p4env/share/psi4/basis/6-31gs.gbs 

  Reading orbitals from file /mnt/storage/nobackup/nca121/scratch_dir/out.mol.38196.180.npy, no projection.

  ==> Integral Setup <==

  DFHelper Memory: AOs need 0.063 GiB; user supplied 0.366 GiB. 
  Using in-core AOs.

  ==> MemDFJK: Density-Fitted J/K Matrices <==

    J tasked:                   Yes
    K tasked:                   Yes
    wK tasked:                   No
    OpenMP threads:               4
    Memory [MiB]:               375
    Algorithm:                 Core
    Schwarz Cutoff:           1E-12
    Mask sparsity (%):       1.1214
    Fitting Condition:        1E-10

   => Auxiliary Basis Set <=

  Basis Set: (6-31G* AUX)
    Blend: CC-PVDZ-JKFIT
    Number of shells: 216
    Number of basis functions: 686
    Number of Cartesian functions: 686
    Spherical Harmonics?: false
    Max angular momentum: 3

  Minimum eigenvalue in the overlap matrix is 3.2868018917E-03.
  Reciprocal condition number of the overlap matrix is 4.5678724905E-04.
    Using symmetric orthogonalization.

  ==> Pre-Iterations <==

  SCF Guess: Orbitals guess was supplied from a previous computation.

   -------------------------------------------------------
    Irrep   Nso     Nmo     Nalpha   Nbeta   Ndocc  Nsocc
   -------------------------------------------------------
     A        106     106      25      25      25       0
   -------------------------------------------------------
    Total     106     106      25      25      25       0
   -------------------------------------------------------

  ==> Iterations <==

                           Total Energy        Delta E     RMS |[F,P]|

   @DF-RHF iter   0:  -342.78926170090881   -3.42789e+02   1.52188e-03 
   @DF-RHF iter   1:  -342.80045725945689   -1.11956e-02   2.75610e-04 ADIIS/DIIS
   @DF-RHF iter   2:  -342.80128268052459   -8.25421e-04   1.03524e-04 ADIIS/DIIS
   @DF-RHF iter   3:  -342.80143513605083   -1.52456e-04   3.38073e-05 DIIS
   @DF-RHF iter   4:  -342.80144566714245   -1.05311e-05   1.00794e-05 DIIS
   @DF-RHF iter   5:  -342.80144747133539   -1.80419e-06   3.26089e-06 DIIS
   @DF-RHF iter   6:  -342.80144760533369   -1.33998e-07   1.01777e-06 DIIS
   @DF-RHF iter   7:  -342.80144761796441   -1.26307e-08   2.16092e-07 DIIS
   @DF-RHF iter   8:  -342.80144761858963   -6.25221e-10   5.06922e-08 DIIS
   @DF-RHF iter   9:  -342.80144761861618   -2.65459e-11   2.09140e-08 DIIS
   @DF-RHF iter  10:  -342.80144761861959   -3.41061e-12   4.89237e-09 DIIS
  Energy and wave function converged.


  ==> Post-Iterations <==

    Orbital Energies [Eh]
    ---------------------

    Doubly Occupied:                                                      

       1A    -20.562201     2A    -20.552819     3A    -20.549121  
       4A    -11.274360     5A    -11.270127     6A    -11.265251  
       7A     -1.377391     8A     -1.358273     9A     -1.354205  
      10A     -1.021729    11A     -0.920553    12A     -0.800792  
      13A     -0.734139    14A     -0.687538    15A     -0.675931  
      16A     -0.651711    17A     -0.620974    18A     -0.580913  
      19A     -0.566980    20A     -0.527999    21A     -0.517578  
      22A     -0.472881    23A     -0.446248    24A     -0.436387  
      25A     -0.422626  

    Virtual:                                                              

      26A      0.214744    27A      0.225026    28A      0.243312  
      29A      0.285104    30A      0.306718    31A      0.319777  
      32A      0.337051    33A      0.351395    34A      0.403373  
      35A      0.419633    36A      0.427383    37A      0.485138  
      38A      0.501353    39A      0.741659    40A      0.744674  
      41A      0.813720    42A      0.847676    43A      0.859718  
      44A      0.894092    45A      0.953947    46A      0.971206  
      47A      1.035097    48A      1.063003    49A      1.082911  
      50A      1.101216    51A      1.124082    52A      1.126448  
      53A      1.148155    54A      1.184761    55A      1.195773  
      56A      1.225516    57A      1.254524    58A      1.261528  
      59A      1.278313    60A      1.289086    61A      1.335938  
      62A      1.350255    63A      1.394373    64A      1.470222  
      65A      1.479535    66A      1.588556    67A      1.707344  
      68A      1.736250    69A      1.747021    70A      1.802752  
      71A      1.914535    72A      1.923671    73A      1.948420  
      74A      1.975260    75A      2.032630    76A      2.043595  
      77A      2.075911    78A      2.164338    79A      2.218695  
      80A      2.226657    81A      2.297502    82A      2.382697  
      83A      2.407718    84A      2.439652    85A      2.445545  
      86A      2.489320    87A      2.558731    88A      2.672889  
      89A      2.708323    90A      2.762347    91A      2.794158  
      92A      2.851731    93A      2.885458    94A      2.896770  
      95A      2.933811    96A      3.036728    97A      3.058992  
      98A      3.234252    99A      3.277086   100A      3.331189  
     101A      4.064017   102A      4.302511   103A      4.316134  
     104A      4.622814   105A      4.822721   106A      4.989842  

    Final Occupation by Irrep:
              A 
    DOCC [    25 ]
    NA   [    25 ]
    NB   [    25 ]

  @DF-RHF Final Energy:  -342.80144761861959

   => Energetics <=

    Nuclear Repulsion Energy =            264.2362069725322158
    One-Electron Energy =                -994.7778539533602498
    Two-Electron Energy =                 387.7401993622085001
    Total Energy =                       -342.8014476186195907

Computation Completed


Properties will be evaluated at   0.000000,   0.000000,   0.000000 [a0]

Properties computed using the SCF density matrix


 Multipole Moments:

 ------------------------------------------------------------------------------------
     Multipole            Electronic (a.u.)      Nuclear  (a.u.)        Total (a.u.)
 ------------------------------------------------------------------------------------

 L = 1.  Multiply by 2.5417464519 to convert [e a0] to [Debye]
 Dipole X            :        -73.5831896           74.0226672            0.4394777
 Dipole Y            :        -61.9758225           61.6694444           -0.3063781
 Dipole Z            :        126.2085535         -126.5732784           -0.3647250
 Magnitude           :                                                    0.6480991

 ------------------------------------------------------------------------------------

*** tstop() called on sb061.cluster at Thu Sep 14 14:43:20 2023
Module time:
	user time   =       3.38 seconds =       0.06 minutes
	system time =       0.23 seconds =       0.00 minutes
	total time  =          1 seconds =       0.02 minutes
Total time:
	user time   =      17.69 seconds =       0.29 minutes
	system time =       1.49 seconds =       0.02 minutes
	total time  =          5 seconds =       0.08 minutes

*** tstart() called on sb061.cluster
*** at Thu Sep 14 14:43:20 2023


         ------------------------------------------------------------
                                   SCF GRAD                          
                          Rob Parrish, Justin Turney,                
                       Andy Simmonett, and Alex Sokolov              
         ------------------------------------------------------------

  ==> Geometry <==

    Molecular point group: c1
    Full point group: C1

    Geometry (in Angstrom), charge = 0, multiplicity = 1:

       Center              X                  Y                   Z               Mass       
    ------------   -----------------  -----------------  -----------------  -----------------
         O           -0.432655851154     0.342568949871     0.169397320204    15.994914619570
         C            0.937766663390     0.563696640913    -0.027569357024    12.000000000000
         C            1.157426619157     1.197201786397    -1.395388569307    12.000000000000
         O            2.499748004451     1.631601741497    -1.387868815132    15.994914619570
         C            0.949545675736     0.257574142703    -2.579085199137    12.000000000000
         O           -0.419018291497     0.028987907024    -2.757366414217    15.994914619570
         H           -0.569585730620    -0.074151199618     1.006926997653     1.007825032230
         H            1.335988899484     1.248297072071     0.713782902890     1.007825032230
         H            1.499157545545    -0.365497693776     0.042051816631     1.007825032230
         H            0.471881695417     2.032220035742    -1.493672840953     1.007825032230
         H            2.657926576448     2.213932332237    -2.116564074648     1.007825032230
         H            1.491603131256    -0.669591340174    -2.408422147054     1.007825032230
         H            1.377345775363     0.726060550069    -3.465484036311     1.007825032230
         H           -0.546233963976    -0.613309414955    -3.439351024595     1.007825032230

  Nuclear repulsion =  264.236206972532216

  ==> Basis Set <==

  Basis Set: 6-31G*
    Blend: 6-31G*
    Number of shells: 52
    Number of basis functions: 106
    Number of Cartesian functions: 106
    Spherical Harmonics?: false
    Max angular momentum: 2

  ==> DFJKGrad: Density-Fitted SCF Gradients <==

    Gradient:                    1
    J tasked:                  Yes
    K tasked:                  Yes
    wK tasked:                  No
    OpenMP threads:              4
    Integrals threads:           4
    Memory [MiB]:              375
    Schwarz Cutoff:          1E-12
    Fitting Condition:       1E-10

   => Auxiliary Basis Set <=

  Basis Set: (6-31G* AUX)
    Blend: CC-PVDZ-JKFIT
    Number of shells: 216
    Number of basis functions: 686
    Number of Cartesian functions: 686
    Spherical Harmonics?: false
    Max angular momentum: 3


  -Total Gradient:
     Atom            X                  Y                   Z
    ------   -----------------  -----------------  -----------------
       1       -0.002041564124    -0.001285765338     0.001076274451
       2        0.002894286222     0.000637297695     0.000168789477
       3       -0.001422137189     0.001764601834    -0.000000869804
       4        0.000847729259     0.001128514629    -0.001362800791
       5        0.002921318814     0.000054458293    -0.000565804351
       6       -0.001431275694    -0.000647332925     0.000764643767
       7       -0.000615881975     0.000214472591    -0.000852104139
       8       -0.000168162032    -0.000626331577    -0.000793255022
       9       -0.000911403885    -0.000224416767     0.000751660413
      10        0.000086968670    -0.000938441462     0.000024314477
      11        0.000562034872    -0.000315509572     0.000584046795
      12       -0.000606468048    -0.000083897115    -0.000531582799
      13       -0.000402325819    -0.000317450826     0.000112528275
      14        0.000286880932     0.000639800540     0.000624159248


*** tstop() called on sb061.cluster at Thu Sep 14 14:43:21 2023
Module time:
	user time   =       2.22 seconds =       0.04 minutes
	system time =       0.10 seconds =       0.00 minutes
	total time  =          1 seconds =       0.02 minutes
Total time:
	user time   =      19.92 seconds =       0.33 minutes
	system time =       1.59 seconds =       0.03 minutes
	total time  =          6 seconds =       0.10 minutes

    			-----------------------------------------

    			 OPTKING 3.0: for geometry optimizations 

    			     By R.A. King, Bethel University     

    			        with contributions from          

    			    A.V. Copan, J. Cayton, A. Heide      

    			-----------------------------------------

    
	                            ===> Fragment 1 <== 

	 Z (Atomic Numbers)          Masses                          Geom                  
	       8.000000            15.994915         -0.81760107  0.64736149  0.32011454   
	       6.000000            12.000000          1.77212216  1.06523227 -0.05209853   
	       6.000000            12.000000          2.18721932  2.26238349 -2.63690223   
	       8.000000            15.994915          4.72383911  3.08328044 -2.62269196   
	       6.000000            12.000000          1.79438127  0.48674459 -4.87376468   
	       8.000000            15.994915         -0.79182981  0.05477921 -5.21066735   
	       1.000000             1.007825         -1.07636104 -0.14012546  1.90281625   
	       1.000000             1.007825          2.52465313  2.35893959  1.34885420   
	       1.000000             1.007825          2.83299718 -0.69069054  0.07946642   
	       1.000000             1.007825          0.89172717  3.84033929 -2.82263259   
	       1.000000             1.007825          5.02275329  4.18372577 -3.99972643   
	       1.000000             1.007825          2.81872141 -1.26534425 -4.55125825   
	       1.000000             1.007825          2.60280630  1.37205559 -6.54881572   
	       1.000000             1.007825         -1.03223259 -1.15898682 -6.49943149   

	 - Coordinate -           - BOHR/RAD -       - ANG/DEG -
	 H(1,8)           =         3.893388           2.060292
	 H(1,9)           =         3.895531           2.061426
	 H(4,10)          =         3.911291           2.069766
	 H(6,12)          =         3.900465           2.064037
	 H(6,13)          =         3.879357           2.052867
[...]
  Rotational constants: A =   3477.41773  B =   1180.38064  C =    921.17710 [MHz]
  Nuclear repulsion =  264.521821441747761

  Charge       = 0
  Multiplicity = 1
  Electrons    = 50
  Nalpha       = 25
  Nbeta        = 25

  ==> Algorithm <==

  SCF Algorithm Type is DF.
  DIIS enabled.
  MOM disabled.
  Fractional occupation disabled.
  Guess Type is READ.
  Energy threshold   = 1.00e-08
  Density threshold  = 1.00e-08
  Integral threshold = 1.00e-12

  ==> Primary Basis <==

  Basis Set: 6-31G*
    Blend: 6-31G*
    Number of shells: 52
    Number of basis functions: 106
    Number of Cartesian functions: 106
    Spherical Harmonics?: false
    Max angular momentum: 2

   => Loading Basis Set <=

    Name: (6-31G* AUX)
    Role: JKFIT
    Keyword: DF_BASIS_SCF
    atoms 1, 4, 6 entry O          line   221 file /mnt/nfs/home/nca121/.conda/envs/p4env/share/psi4/basis/cc-pvdz-jkfit.gbs 
    atoms 2-3, 5  entry C          line   121 file /mnt/nfs/home/nca121/.conda/envs/p4env/share/psi4/basis/cc-pvdz-jkfit.gbs 
    atoms 7-14    entry H          line    51 file /mnt/nfs/home/nca121/.conda/envs/p4env/share/psi4/basis/cc-pvdz-jkfit.gbs 

   => Loading Basis Set <=

    Name: 6-31G*
    Role: ORBITAL
    Keyword: BASIS
    atoms 1, 4, 6 entry O          line   145 file /mnt/nfs/home/nca121/.conda/envs/p4env/share/psi4/basis/6-31gs.gbs 
    atoms 2-3, 5  entry C          line   111 file /mnt/nfs/home/nca121/.conda/envs/p4env/share/psi4/basis/6-31gs.gbs 
    atoms 7-14    entry H          line    44 file /mnt/nfs/home/nca121/.conda/envs/p4env/share/psi4/basis/6-31gs.gbs 

  Reading orbitals from file /mnt/storage/nobackup/nca121/scratch_dir/out.mol.38196.180.npy, no projection.

  ==> Integral Setup <==

  DFHelper Memory: AOs need 0.063 GiB; user supplied 0.366 GiB. 
  Using in-core AOs.

  ==> MemDFJK: Density-Fitted J/K Matrices <==

    J tasked:                   Yes
    K tasked:                   Yes
    wK tasked:                   No
    OpenMP threads:               4
    Memory [MiB]:               375
    Algorithm:                 Core
    Schwarz Cutoff:           1E-12
    Mask sparsity (%):       1.1748
    Fitting Condition:        1E-10

   => Auxiliary Basis Set <=

  Basis Set: (6-31G* AUX)
    Blend: CC-PVDZ-JKFIT
    Number of shells: 216
    Number of basis functions: 686
    Number of Cartesian functions: 686
    Spherical Harmonics?: false
    Max angular momentum: 3

  Minimum eigenvalue in the overlap matrix is 3.2948922804E-03.
  Reciprocal condition number of the overlap matrix is 4.5877047106E-04.
    Using symmetric orthogonalization.

  ==> Pre-Iterations <==

  SCF Guess: Orbitals guess was supplied from a previous computation.

   -------------------------------------------------------
    Irrep   Nso     Nmo     Nalpha   Nbeta   Ndocc  Nsocc
   -------------------------------------------------------
     A        106     106      25      25      25       0
   -------------------------------------------------------
    Total     106     106      25      25      25       0
   -------------------------------------------------------

  ==> Iterations <==

                           Total Energy        Delta E     RMS |[F,P]|

   @DF-RHF iter   0:  -342.76222300019424   -3.42762e+02   2.56254e-03 
   @DF-RHF iter   1:  -342.80074687289778   -3.85239e-02   6.00248e-04 ADIIS/DIIS
   @DF-RHF iter   2:  -342.80407485015701   -3.32798e-03   2.65943e-04 ADIIS/DIIS
   @DF-RHF iter   3:  -342.80466529011238   -5.90440e-04   1.26345e-04 ADIIS/DIIS
   @DF-RHF iter   4:  -342.80484061319783   -1.75323e-04   2.47070e-05 DIIS
   @DF-RHF iter   5:  -342.80484975458751   -9.14139e-06   9.71719e-06 DIIS
   @DF-RHF iter   6:  -342.80485111867642   -1.36409e-06   1.84658e-06 DIIS
   @DF-RHF iter   7:  -342.80485117172236   -5.30459e-08   4.34513e-07 DIIS
   @DF-RHF iter   8:  -342.80485117387019   -2.14783e-09   1.74846e-07 DIIS
   @DF-RHF iter   9:  -342.80485117409256   -2.22371e-10   3.82283e-08 DIIS
   @DF-RHF iter  10:  -342.80485117411115   -1.85878e-11   9.74826e-09 DIIS
  Energy and wave function converged.


  ==> Post-Iterations <==

    Orbital Energies [Eh]
    ---------------------

    Doubly Occupied:                                                      

       1A    -20.564463     2A    -20.562355     3A    -20.544371  
       4A    -11.274845     5A    -11.274073     6A    -11.267331  
       7A     -1.379120     8A     -1.363076     9A     -1.349294  
      10A     -1.022091    11A     -0.920786    12A     -0.810539  
      13A     -0.732799    14A     -0.708244    15A     -0.665368  
      16A     -0.645121    17A     -0.623903    18A     -0.583626  
      19A     -0.564827    20A     -0.532862    21A     -0.513666  
      22A     -0.488679    23A     -0.453327    24A     -0.450854  
      25A     -0.408561  

    Virtual:                                                              

      26A      0.211796    27A      0.227843    28A      0.253917  
      29A      0.283898    30A      0.302771    31A      0.304424  
      32A      0.340226    33A      0.349844    34A      0.403771  
      35A      0.407717    36A      0.426230    37A      0.491617  
      38A      0.504389    39A      0.746070    40A      0.749115  
      41A      0.805313    42A      0.834613    43A      0.862767  
      44A      0.880861    45A      0.930799    46A      0.979111  
      47A      1.023084    48A      1.048851    49A      1.095032  
      50A      1.106003    51A      1.115049    52A      1.133826  
      53A      1.164929    54A      1.184094    55A      1.191158  
      56A      1.211965    57A      1.247573    58A      1.253211  
      59A      1.271716    60A      1.320173    61A      1.342790  
      62A      1.348176    63A      1.383810    64A      1.461853  
      65A      1.515202    66A      1.607742    67A      1.612939  
      68A      1.717853    69A      1.732121    70A      1.812486  
      71A      1.882075    72A      1.910489    73A      1.940783  
      74A      1.965260    75A      2.037343    76A      2.065490  
      77A      2.097195    78A      2.150389    79A      2.211130  
      80A      2.220835    81A      2.282715    82A      2.370880  
      83A      2.405144    84A      2.430226    85A      2.469530  
      86A      2.497528    87A      2.549700    88A      2.647336  
      89A      2.705709    90A      2.741098    91A      2.768871  
      92A      2.833506    93A      2.869470    94A      2.916048  
      95A      2.951548    96A      3.009103    97A      3.082970  
      98A      3.228232    99A      3.252529   100A      3.327379  
     101A      4.089816   102A      4.244418   103A      4.332409  
     104A      4.626804   105A      4.802497   106A      4.992285  

    Final Occupation by Irrep:
              A 
    DOCC [    25 ]
    NA   [    25 ]
    NB   [    25 ]

  @DF-RHF Final Energy:  -342.80485117411115

   => Energetics <=

    Nuclear Repulsion Energy =            264.5218214417477611
    One-Electron Energy =                -995.2449790360200268
    Two-Electron Energy =                 387.9183064201611160
    Total Energy =                       -342.8048511741111497

Computation Completed


Properties will be evaluated at   0.000000,   0.000000,   0.000000 [a0]

Properties computed using the SCF density matrix


 Multipole Moments:

 ------------------------------------------------------------------------------------
     Multipole            Electronic (a.u.)      Nuclear  (a.u.)        Total (a.u.)
 ------------------------------------------------------------------------------------

 L = 1.  Multiply by 2.5417464519 to convert [e a0] to [Debye]
 Dipole X            :        -76.7745789           77.0111669            0.2365880
 Dipole Y            :        -63.4986959           63.1163181           -0.3823777
 Dipole Z            :        134.5755988         -134.0621778            0.5134210
 Magnitude           :                                                    0.6824865

 ------------------------------------------------------------------------------------

*** tstop() called on sb061.cluster at Thu Sep 14 14:43:35 2023
Module time:
	user time   =       3.37 seconds =       0.06 minutes
	system time =       0.23 seconds =       0.00 minutes
	total time  =          1 seconds =       0.02 minutes
Total time:
	user time   =      72.68 seconds =       1.21 minutes
	system time =       5.18 seconds =       0.09 minutes
	total time  =         20 seconds =       0.33 minutes

*** tstart() called on sb061.cluster
*** at Thu Sep 14 14:43:35 2023


         ------------------------------------------------------------
                                   SCF GRAD                          
                          Rob Parrish, Justin Turney,                
                       Andy Simmonett, and Alex Sokolov              
         ------------------------------------------------------------

  ==> Geometry <==

    Molecular point group: c1
    Full point group: C1

    Geometry (in Angstrom), charge = 0, multiplicity = 1:

       Center              X                  Y                   Z               Mass       
    ------------   -----------------  -----------------  -----------------  -----------------
         O           -0.400926809812     0.116660749336    -0.069199292387    15.994914619570
         C            0.941581303366     0.566242156779    -0.088327375936    12.000000000000
         C            1.211571257859     1.230477114409    -1.444848602330    12.000000000000
         O            2.516920336332     1.739011747196    -1.381804267987    15.994914619570
         C            1.022623665734     0.240343325262    -2.607508283950    12.000000000000
         O           -0.335596866679     0.243586457366    -2.991941374509    15.994914619570
         H           -0.612701138087    -0.275058543222     0.762010997232     1.007825032230
         H            1.110648135261     1.295732703631     0.691169788356     1.007825032230
         H            1.619717231553    -0.266904115903     0.081419344873     1.007825032230
         H            0.482831968218     2.016549536542    -1.592119440940     1.007825032230
         H            2.697482411285     2.306572279062    -2.114916740875     1.007825032230
         H            1.329263894065    -0.757406960528    -2.328421421991     1.007825032230
         H            1.629383915880     0.532480841855    -3.459439385563     1.007825032230
         H           -0.801902555974    -0.468695781785    -2.594687384992     1.007825032230

  Nuclear repulsion =  264.521821441747761

  ==> Basis Set <==

  Basis Set: 6-31G*
    Blend: 6-31G*
    Number of shells: 52
    Number of basis functions: 106
    Number of Cartesian functions: 106
    Spherical Harmonics?: false
    Max angular momentum: 2

  ==> DFJKGrad: Density-Fitted SCF Gradients <==

    Gradient:                    1
    J tasked:                  Yes
    K tasked:                  Yes
    wK tasked:                  No
    OpenMP threads:              4
    Integrals threads:           4
    Memory [MiB]:              375
    Schwarz Cutoff:          1E-12
    Fitting Condition:       1E-10

   => Auxiliary Basis Set <=

  Basis Set: (6-31G* AUX)
    Blend: CC-PVDZ-JKFIT
    Number of shells: 216
    Number of basis functions: 686
    Number of Cartesian functions: 686
    Spherical Harmonics?: false
    Max angular momentum: 3


  -Total Gradient:
     Atom            X                  Y                   Z
    ------   -----------------  -----------------  -----------------
       1       -0.005740961221    -0.002876912042     0.009031853223
       2        0.006943038941    -0.002406169783     0.000533668258
       3        0.001508179633     0.012463939037     0.000027266874
       4       -0.003154727081     0.004823019210    -0.006850555773
       5        0.013832547185    -0.003769523964    -0.004402645028
       6       -0.011099763132    -0.004309696205     0.013616621161
       7       -0.002407372417     0.000702584493    -0.004424899542
       8       -0.000712528745    -0.002428365227    -0.002388806292
       9       -0.001996383826    -0.001642802713     0.003345757890
      10        0.000190425389    -0.002869545535    -0.000983154193
      11        0.002498369765    -0.000829220748     0.002695398541
      12       -0.004127724935     0.002621704150    -0.001792348336
      13        0.003163884339    -0.002636952612    -0.000164790018
      14        0.001103016105     0.003157941940    -0.008243366764


*** tstop() called on sb061.cluster at Thu Sep 14 14:43:36 2023
Module time:
	user time   =       2.25 seconds =       0.04 minutes
	system time =       0.11 seconds =       0.00 minutes
	total time  =          1 seconds =       0.02 minutes
Total time:
	user time   =      74.94 seconds =       1.25 minutes
	system time =       5.29 seconds =       0.09 minutes
	total time  =         21 seconds =       0.35 minutes

    			-----------------------------------------

    			 OPTKING 3.0: for geometry optimizations 

    			     By R.A. King, Bethel University     

    			        with contributions from          

    			    A.V. Copan, J. Cayton, A. Heide      

    			-----------------------------------------

    
	                            ===> Fragment 1 <== 

	 Z (Atomic Numbers)          Masses                          Geom                  
	       8.000000            15.994915         -0.75764187  0.22045687 -0.13076771   
	       6.000000            12.000000          1.77933079  1.07004260 -0.16691455   
	       6.000000            12.000000          2.28953786  2.32526475 -2.73036815   
	       8.000000            15.994915          4.75629012  3.28625593 -2.61123163   
	       6.000000            12.000000          1.93247866  0.45418306 -4.92747653   
	       8.000000            15.994915         -0.63418617  0.46031169 -5.65394978   
	       1.000000             1.007825         -1.15783735 -0.51978532  1.43999209   
	       1.000000             1.007825          2.09882080  2.44857994  1.30612161   
	       1.000000             1.007825          3.06082197 -0.50437568  0.15386026   
	       1.000000             1.007825          0.91242018  3.81072634 -3.00866970   
	       1.000000             1.007825          5.09750299  4.35878990 -3.99661342   
	       1.000000             1.007825          2.51194471 -1.43129172 -4.40007879   
	       1.000000             1.007825          3.07908935  1.00624296 -6.53739299   
	       1.000000             1.007825         -1.51537621 -0.88570666 -4.90324854   

	 - Coordinate -           - BOHR/RAD -       - ANG/DEG -
	 H(1,8)           =         3.897251           2.062336
	 H(1,9)           =         3.897058           2.062234
	 H(4,10)          =         3.899790           2.063680
	 H(6,12)          =         3.879239           2.052805
	 H(6,13)          =         3.855766           2.040383
	 R(1,2)           =         2.675693           1.415916
	 R(1,7)           =         1.781966           0.942976
	 R(2,3)           =         2.899515           1.534357
	 R(2,8)           =         2.042615           1.080905
	 R(2,9)           =         2.055215           1.087573
	 R(3,4)           =         2.650012           1.402326
	 R(3,5)           =         2.907873           1.538780
	 R(3,10)          =         2.044627           1.081970
	 R(4,11)          =         1.784948           0.944554
	 R(5,6)           =         2.667502           1.411582
	 R(5,12)          =         2.041799           1.080474
	 R(5,13)          =         2.052149           1.085951
	 R(6,14)          =         1.775335           0.939467
	 B(1,2,3)         =         1.892560         108.435718
	 B(1,2,8)         =         1.931413         110.661819
	 B(1,2,9)         =         1.923948         110.234109
	 B(2,1,7)         =         1.935579         110.900489
	 B(2,3,4)         =         1.855670         106.322050
	 B(2,3,5)         =         1.947478         111.582278
	 B(2,3,10)        =         1.892662         108.441557
	 B(3,2,8)         =         1.894291         108.534862
	 B(3,2,9)         =         1.938961         111.094264
	 B(3,4,11)        =         1.940081         111.158450
	 B(3,5,6)         =         1.899107         108.810829
	 B(3,5,12)        =         1.943545         111.356926
	 B(3,5,13)        =         1.929480         110.551058
	 B(4,3,5)         =         1.962331         112.433267
	 B(4,3,10)        =         1.949385         111.691514
	 B(5,3,10)        =         1.856607         106.375723
	 B(5,6,14)        =         1.939800         111.142352
	 B(6,5,12)        =         1.923612         110.214826
	 B(6,5,13)        =         1.900057         108.865265
	 B(8,2,9)         =         1.882752         107.873769
	 B(12,5,13)       =         1.867622         107.006854
	 D(1,2,3,4)       =         3.072118         176.019399
	 D(1,2,3,5)       =        -1.065729         -61.061746
	 D(1,2,3,10)      =         0.973527          55.778974
	 D(2,3,4,11)      =         3.333841         191.015025
	 D(2,3,5,6)       =         1.518346          86.994834
	 D(2,3,5,12)      =        -0.605345         -34.683736
	 D(2,3,5,13)      =        -2.679071        -153.499436
	 D(3,2,1,7)       =         3.172133         181.749810
	 D(3,5,6,14)      =         4.584041         262.646211
	 D(4,3,2,8)       =         0.973040          55.751100
	 D(4,3,2,9)       =        -1.094191         -62.692531
	 D(4,3,5,6)       =        -2.681632        -153.646215
	 D(4,3,5,12)      =         1.477861          84.675216
	 D(4,3,5,13)      =        -0.595864         -34.140485
	 D(5,3,2,8)       =         3.118379         178.669955
	 D(5,3,2,9)       =         1.051148          60.226324
	 D(5,3,4,11)      =         1.197871          68.632963
	 D(6,5,3,10)      =        -0.542661         -31.092178
	 D(7,1,2,8)       =        -1.035242         -59.314989
	 D(7,1,2,9)       =         1.046036          59.933425
	 D(8,2,3,10)      =        -1.125551         -64.489326
	 D(9,2,3,10)      =         3.090403         177.067044
	 D(10,3,4,11)     =        -0.887867         -50.871043
	 D(10,3,5,12)     =        -2.666353        -152.770747
	 D(10,3,5,13)     =         1.543108          88.413552
	 D(12,5,6,14)     =         0.436645          25.017897
	 D(13,5,6,14)     =         2.480038         142.095682

Traceback (most recent call last):
  File "/mnt/nfs/home/nca121/.conda/envs/p4env/bin/psi4", line 372, in <module>
    exec(content)
  File "<string>", line 39, in <module>
  File "/mnt/nfs/home/nca121/.conda/envs/p4env/lib/python3.11/site-packages/psi4/driver/driver.py", line 1272, in optimize
    opt_object.take_step()
  File "/mnt/nfs/home/nca121/.conda/envs/p4env/lib/python3.11/site-packages/optking/opt_helper.py", line 176, in take_step
    self.opt_manager.alg_error_handler(e)
  File "/mnt/nfs/home/nca121/.conda/envs/p4env/lib/python3.11/site-packages/optking/optimize.py", line 372, in alg_error_handler
    raise OptError("Maximum dynamic_level reached.")

optking.exceptions.OptError: Maximum dynamic_level reached.


Printing out the relevant lines from the Psithon --> Python processed input file:
      H  1.432889819  0.657149851 -3.450341940
      H -0.443421751 -0.582687497 -3.540498734
    ""","mol")
    core.IO.set_default_namespace("mol")
    core.set_global_option("BASIS", "6-31G*")
--> optimize('scf')
    E,wfn = prop('hf', properties = ['GRID_ESP', 'GRID_FIELD'], return_wfn=True)

!---------------------------------!
!                                 !
!  Maximum dynamic_level reached. !
!                                 !
!---------------------------------!

    Psi4 stopped on: Thursday, 14 September 2023 02:43PM
    Psi4 wall time for execution: 0:00:23.40

*** Psi4 encountered an error. Buy a developer more coffee!
*** Resources and help at github.com/psi4/psi4.
