
    -----------------------------------------------------------------------
          Psi4: An Open-Source Ab Initio Electronic Structure Package
                               Psi4 1.8.1 release

                         Git: Rev {} zzzzzzz 


    D. G. A. Smith, L. A. Burns, A. C. Simmonett, R. M. Parrish,
    M. C. Schieber, R. Galvelis, P. Kraus, H. Kruse, R. Di Remigio,
    A. Alenaizan, A. M. James, S. Lehtola, J. P. Misiewicz, M. Scheurer,
    R. A. Shaw, J. B. Schriber, Y. Xie, Z. L. Glick, D. A. Sirianni,
    J. S. O'Brien, J. M. Waldrop, A. Kumar, E. G. Hohenstein,
    B. P. Pritchard, B. R. Brooks, H. F. Schaefer III, A. Yu. Sokolov,
    K. Patkowski, A. E. DePrince III, U. Bozkaya, R. A. King,
    F. A. Evangelista, J. M. Turney, T. D. Crawford, C. D. Sherrill,
    J. Chem. Phys. 152(18) 184108 (2020). https://doi.org/10.1063/5.0006002

                            Additional Code Authors
    E. T. Seidl, C. L. Janssen, E. F. Valeev, M. L. Leininger,
    J. F. Gonthier, R. M. Richard, H. R. McAlexander, M. Saitow, X. Wang,
    P. Verma, M. H. Lechner, A. Jiang, S. Behnle, A. G. Heide,
    M. F. Herbst, and D. L. Poole

             Previous Authors, Complete List of Code Contributors,
                       and Citations for Specific Modules
    https://github.com/psi4/psi4/blob/master/codemeta.json
    https://github.com/psi4/psi4/graphs/contributors
    http://psicode.org/psi4manual/master/introduction.html#citing-psifour

    -----------------------------------------------------------------------


    Psi4 started on: Friday, 15 September 2023 09:13AM

    Process ID: 22007
    Host:       sb057.cluster
    PSIDATADIR: /mnt/nfs/home/nca121/.conda/envs/p4env/share/psi4
    Memory:     500.0 MiB
    Threads:    4
    
  ==> Input File <==

--------------------------------------------------------------------------
molecule mol {

  noreorient

  nocom

  0 1

  O -0.441725969  0.405654699  0.224152058

  C  0.952345967  0.538462937 -0.032555223

  C  1.143980265  1.233094573 -1.374383688

  O  2.467077732  1.773290634 -1.406449676

  C  0.985560060  0.257294655 -2.534839153

  O -0.396745652  0.041104283 -2.798947811

  H -0.532666981 -0.039461162  1.083984137

  H  1.390232444  1.123285651  0.783144593

  H  1.392245412 -0.463723868 -0.041223831

  H  0.455191284  2.079832554 -1.471976757

  H  2.562606573  2.207801580 -2.266771555

  H  1.443327546 -0.711507380 -2.311905861

  H  1.432889819  0.657149851 -3.450341940

  H -0.443421751 -0.582687497 -3.540498734

}



set {

  basis 6-31G*
  DYNAMIC_LEVEL 1
}



optimize('scf')



E,wfn = prop('hf', properties = ['GRID_ESP', 'GRID_FIELD'], return_wfn=True)
--------------------------------------------------------------------------

Scratch directory: /mnt/storage/nobackup/nca121/scratch_dir/
gradient() will perform analytic gradient computation.
   => Libint2 <=

    Primary   basis highest AM E, G, H:  5, 4, 3
    Auxiliary basis highest AM E, G, H:  6, 5, 4
    Onebody   basis highest AM E, G, H:  6, 5, 4
    Solid Harmonics ordering:            gaussian

*** tstart() called on sb057.cluster
*** at Fri Sep 15 09:13:16 2023

   => Loading Basis Set <=

    Name: 6-31G*
    Role: ORBITAL
    Keyword: BASIS
    atoms 1, 4, 6 entry O          line   145 file /mnt/nfs/home/nca121/.conda/envs/p4env/share/psi4/basis/6-31gs.gbs 
    atoms 2-3, 5  entry C          line   111 file /mnt/nfs/home/nca121/.conda/envs/p4env/share/psi4/basis/6-31gs.gbs 
    atoms 7-14    entry H          line    44 file /mnt/nfs/home/nca121/.conda/envs/p4env/share/psi4/basis/6-31gs.gbs 


         ---------------------------------------------------------
                                   SCF
               by Justin Turney, Rob Parrish, Andy Simmonett
                          and Daniel G. A. Smith
                              RHF Reference
                        4 Threads,    500 MiB Core
         ---------------------------------------------------------

  ==> Geometry <==

    Molecular point group: c1
    Full point group: C1

    Geometry (in Angstrom), charge = 0, multiplicity = 1:

       Center              X                  Y                   Z               Mass       
    ------------   -----------------  -----------------  -----------------  -----------------
         O           -0.441725969000     0.405654699000     0.224152058000    15.994914619570
         C            0.952345967000     0.538462937000    -0.032555223000    12.000000000000
         C            1.143980265000     1.233094573000    -1.374383688000    12.000000000000
         O            2.467077732000     1.773290634000    -1.406449676000    15.994914619570
         C            0.985560060000     0.257294655000    -2.534839153000    12.000000000000
         O           -0.396745652000     0.041104283000    -2.798947811000    15.994914619570
         H           -0.532666981000    -0.039461162000     1.083984137000     1.007825032230
         H            1.390232444000     1.123285651000     0.783144593000     1.007825032230
         H            1.392245412000    -0.463723868000    -0.041223831000     1.007825032230
         H            0.455191284000     2.079832554000    -1.471976757000     1.007825032230
         H            2.562606573000     2.207801580000    -2.266771555000     1.007825032230
         H            1.443327546000    -0.711507380000    -2.311905861000     1.007825032230
         H            1.432889819000     0.657149851000    -3.450341940000     1.007825032230
         H           -0.443421751000    -0.582687497000    -3.540498734000     1.007825032230

  Running in c1 symmetry.

  Rotational constants: A =      0.11398  B =      0.04127  C =      0.03209 [cm^-1]
  Rotational constants: A =   3417.01995  B =   1237.12286  C =    962.06186 [MHz]
  Nuclear repulsion =  261.676331691510882

  Charge       = 0
  Multiplicity = 1
  Electrons    = 50
  Nalpha       = 25
  Nbeta        = 25

  ==> Algorithm <==

  SCF Algorithm Type is DF.
  DIIS enabled.
  MOM disabled.
  Fractional occupation disabled.
  Guess Type is SAD.
  Energy threshold   = 1.00e-08
  Density threshold  = 1.00e-08
  Integral threshold = 1.00e-12

  ==> Primary Basis <==

  Basis Set: 6-31G*
    Blend: 6-31G*
    Number of shells: 52
    Number of basis functions: 106
    Number of Cartesian functions: 106
    Spherical Harmonics?: false
    Max angular momentum: 2

   => Loading Basis Set <=

    Name: (6-31G* AUX)
    Role: JKFIT
    Keyword: DF_BASIS_SCF
    atoms 1, 4, 6 entry O          line   221 file /mnt/nfs/home/nca121/.conda/envs/p4env/share/psi4/basis/cc-pvdz-jkfit.gbs 
    atoms 2-3, 5  entry C          line   121 file /mnt/nfs/home/nca121/.conda/envs/p4env/share/psi4/basis/cc-pvdz-jkfit.gbs 
    atoms 7-14    entry H          line    51 file /mnt/nfs/home/nca121/.conda/envs/p4env/share/psi4/basis/cc-pvdz-jkfit.gbs 

  ==> Integral Setup <==

  DFHelper Memory: AOs need 0.063 GiB; user supplied 0.366 GiB. 
  Using in-core AOs.

  ==> MemDFJK: Density-Fitted J/K Matrices <==

    J tasked:                   Yes
    K tasked:                   Yes
    wK tasked:                   No
    OpenMP threads:               4
    Memory [MiB]:               375
    Algorithm:                 Core
    Schwarz Cutoff:           1E-12
    Mask sparsity (%):       1.2460
    Fitting Condition:        1E-10

   => Auxiliary Basis Set <=

  Basis Set: (6-31G* AUX)
    Blend: CC-PVDZ-JKFIT
    Number of shells: 216
    Number of basis functions: 686
    Number of Cartesian functions: 686
    Spherical Harmonics?: false
    Max angular momentum: 3

  Minimum eigenvalue in the overlap matrix is 3.2939808942E-03.
  Reciprocal condition number of the overlap matrix is 4.6115928500E-04.
    Using symmetric orthogonalization.

  ==> Pre-Iterations <==

  SCF Guess: Superposition of Atomic Densities via on-the-fly atomic UHF (no occupation information).

   -------------------------
    Irrep   Nso     Nmo    
   -------------------------
     A        106     106 
   -------------------------
    Total     106     106
   -------------------------

  ==> Iterations <==

                           Total Energy        Delta E     RMS |[F,P]|

   @DF-RHF iter SAD:  -341.67349870986931   -3.41673e+02   0.00000e+00 
   @DF-RHF iter   1:  -342.61625052865139   -9.42752e-01   5.67443e-03 ADIIS/DIIS
   @DF-RHF iter   2:  -342.75550386835766   -1.39253e-01   3.06728e-03 ADIIS/DIIS
   @DF-RHF iter   3:  -342.79174761283076   -3.62437e-02   4.90305e-04 ADIIS/DIIS
   @DF-RHF iter   4:  -342.79350409237782   -1.75648e-03   1.18211e-04 ADIIS/DIIS
   @DF-RHF iter   5:  -342.79359888028551   -9.47879e-05   3.16198e-05 DIIS
   @DF-RHF iter   6:  -342.79360653409907   -7.65381e-06   7.73198e-06 DIIS
   @DF-RHF iter   7:  -342.79360721208855   -6.77989e-07   2.01792e-06 DIIS
   @DF-RHF iter   8:  -342.79360725118948   -3.91009e-08   8.41507e-07 DIIS
   @DF-RHF iter   9:  -342.79360725703691   -5.84743e-09   1.59868e-07 DIIS
   @DF-RHF iter  10:  -342.79360725736507   -3.28157e-10   4.92238e-08 DIIS
   @DF-RHF iter  11:  -342.79360725739650   -3.14344e-11   1.61768e-08 DIIS
   @DF-RHF iter  12:  -342.79360725739986   -3.35376e-12   4.12075e-09 DIIS
  Energy and wave function converged.


  ==> Post-Iterations <==

    Orbital Energies [Eh]
    ---------------------

    Doubly Occupied:                                                      

       1A    -20.565399     2A    -20.556585     3A    -20.552781  
       4A    -11.282136     5A    -11.278345     6A    -11.273287  
       7A     -1.368427     8A     -1.348066     9A     -1.344264  
      10A     -1.021909    11A     -0.914605    12A     -0.803126  
      13A     -0.716357    14A     -0.676603    15A     -0.672143  
      16A     -0.655291    17A     -0.614592    18A     -0.584194  
      19A     -0.564541    20A     -0.526004    21A     -0.517935  
      22A     -0.472962    23A     -0.453881    24A     -0.437815  
      25A     -0.427632  

    Virtual:                                                              

      26A      0.206506    27A      0.217102    28A      0.235822  
      29A      0.273658    30A      0.306635    31A      0.310256  
      32A      0.334312    33A      0.343487    34A      0.396741  
      35A      0.411464    36A      0.415670    37A      0.474053  
      38A      0.495246    39A      0.744936    40A      0.753438  
      41A      0.797428    42A      0.834710    43A      0.850304  
      44A      0.888712    45A      0.938719    46A      0.990535  
      47A      1.027657    48A      1.058939    49A      1.072924  
      50A      1.106018    51A      1.115696    52A      1.124570  
      53A      1.142919    54A      1.172272    55A      1.187636  
      56A      1.218054    57A      1.241294    58A      1.255271  
      59A      1.262400    60A      1.268794    61A      1.325987  
      62A      1.350205    63A      1.404945    64A      1.455106  
      65A      1.497013    66A      1.557561    67A      1.668227  
      68A      1.725532    69A      1.732108    70A      1.786605  
      71A      1.898648    72A      1.931318    73A      1.945921  
      74A      1.993442    75A      2.040804    76A      2.057935  
      77A      2.099665    78A      2.153924    79A      2.212537  
      80A      2.214390    81A      2.268821    82A      2.363393  
      83A      2.403976    84A      2.414520    85A      2.429866  
      86A      2.487714    87A      2.604397    88A      2.648101  
      89A      2.706651    90A      2.722458    91A      2.791247  
      92A      2.817129    93A      2.836985    94A      2.852743  
      95A      2.915234    96A      2.995480    97A      3.065820  
      98A      3.216145    99A      3.258671   100A      3.323028  
     101A      4.050976   102A      4.265647   103A      4.288811  
     104A      4.624019   105A      4.829282   106A      4.986986  

    Final Occupation by Irrep:
              A 
    DOCC [    25 ]
    NA   [    25 ]
    NB   [    25 ]

  @DF-RHF Final Energy:  -342.79360725739986

   => Energetics <=

    Nuclear Repulsion Energy =            261.6763316915108817
    One-Electron Energy =                -989.6821140128880643
    Two-Electron Energy =                 385.2121750639773268
    Total Energy =                       -342.7936072573998558

Computation Completed


Properties will be evaluated at   0.000000,   0.000000,   0.000000 [a0]

Properties computed using the SCF density matrix


 Multipole Moments:

 ------------------------------------------------------------------------------------
     Multipole            Electronic (a.u.)      Nuclear  (a.u.)        Total (a.u.)
 ------------------------------------------------------------------------------------

 L = 1.  Multiply by 2.5417464519 to convert [e a0] to [Debye]
 Dipole X            :        -73.5881453           74.1161376            0.5279924
 Dipole Y            :        -65.1263512           64.6365697           -0.4897815
 Dipole Z            :        125.6458164         -126.0753873           -0.4295708
 Magnitude           :                                                    0.8385660

 ------------------------------------------------------------------------------------

*** tstop() called on sb057.cluster at Fri Sep 15 09:13:20 2023
Module time:
	user time   =       4.59 seconds =       0.08 minutes
	system time =       0.50 seconds =       0.01 minutes
	total time  =          4 seconds =       0.07 minutes
Total time:
	user time   =       4.59 seconds =       0.08 minutes
	system time =       0.50 seconds =       0.01 minutes
	total time  =          4 seconds =       0.07 minutes

*** tstart() called on sb057.cluster
*** at Fri Sep 15 09:13:20 2023


         ------------------------------------------------------------
                                   SCF GRAD                          
                          Rob Parrish, Justin Turney,                
                       Andy Simmonett, and Alex Sokolov              
         ------------------------------------------------------------

  ==> Geometry <==

    Molecular point group: c1
    Full point group: C1

    Geometry (in Angstrom), charge = 0, multiplicity = 1:

       Center              X                  Y                   Z               Mass       
    ------------   -----------------  -----------------  -----------------  -----------------
         O           -0.441725969000     0.405654699000     0.224152058000    15.994914619570
         C            0.952345967000     0.538462937000    -0.032555223000    12.000000000000
         C            1.143980265000     1.233094573000    -1.374383688000    12.000000000000
         O            2.467077732000     1.773290634000    -1.406449676000    15.994914619570
         C            0.985560060000     0.257294655000    -2.534839153000    12.000000000000
         O           -0.396745652000     0.041104283000    -2.798947811000    15.994914619570
         H           -0.532666981000    -0.039461162000     1.083984137000     1.007825032230
         H            1.390232444000     1.123285651000     0.783144593000     1.007825032230
         H            1.392245412000    -0.463723868000    -0.041223831000     1.007825032230
         H            0.455191284000     2.079832554000    -1.471976757000     1.007825032230
         H            2.562606573000     2.207801580000    -2.266771555000     1.007825032230
         H            1.443327546000    -0.711507380000    -2.311905861000     1.007825032230
         H            1.432889819000     0.657149851000    -3.450341940000     1.007825032230
         H           -0.443421751000    -0.582687497000    -3.540498734000     1.007825032230

  Nuclear repulsion =  261.676331691510882

  ==> Basis Set <==

  Basis Set: 6-31G*
    Blend: 6-31G*
    Number of shells: 52
    Number of basis functions: 106
    Number of Cartesian functions: 106
    Spherical Harmonics?: false
    Max angular momentum: 2

  ==> DFJKGrad: Density-Fitted SCF Gradients <==

    Gradient:                    1
    J tasked:                  Yes
    K tasked:                  Yes
    wK tasked:                  No
    OpenMP threads:              4
    Integrals threads:           4
    Memory [MiB]:              375
    Schwarz Cutoff:          1E-12
    Fitting Condition:       1E-10

   => Auxiliary Basis Set <=

  Basis Set: (6-31G* AUX)
    Blend: CC-PVDZ-JKFIT
    Number of shells: 216
    Number of basis functions: 686
    Number of Cartesian functions: 686
    Spherical Harmonics?: false
    Max angular momentum: 3


  -Total Gradient:
     Atom            X                  Y                   Z
    ------   -----------------  -----------------  -----------------
       1       -0.008981313511     0.009975201705    -0.019361534319
       2        0.016497951821     0.000823478659    -0.016575506626
       3       -0.011639055797    -0.009934366627     0.002578187632
       4        0.007645291724     0.001687320334     0.017695051419
       5        0.023278293258     0.008161480408     0.014557377823
       6       -0.011777358671     0.012685885216     0.015756684149
       7       -0.000183038362    -0.012397754444     0.024448033733
       8       -0.004148189609     0.002207773347     0.010238968067
       9       -0.004806196478    -0.008850415048     0.001155945701
      10        0.002683139826     0.013392519661    -0.001552161601
      11       -0.001616592293     0.008100902802    -0.021840609854
      12       -0.005003146349    -0.009511429514    -0.000500396332
      13       -0.004549557928    -0.000702090786    -0.007199679385
      14        0.002599772370    -0.015638505711    -0.019400360410


*** tstop() called on sb057.cluster at Fri Sep 15 09:13:20 2023
Module time:
	user time   =       2.12 seconds =       0.04 minutes
	system time =       0.21 seconds =       0.00 minutes
	total time  =          0 seconds =       0.00 minutes
Total time:
	user time   =       6.72 seconds =       0.11 minutes
	system time =       0.71 seconds =       0.01 minutes
	total time  =          4 seconds =       0.07 minutes

    			-----------------------------------------

    			 OPTKING 3.0: for geometry optimizations 

    			     By R.A. King, Bethel University     

    			        with contributions from          

    			    A.V. Copan, J. Cayton, A. Heide      

    			-----------------------------------------

    
	                            ===> Fragment 1 <== 

	 Z (Atomic Numbers)          Masses                          Geom                  
	       8.000000            15.994915         -0.83474110  0.76657628  0.42358600   
	       6.000000            12.000000          1.79967305  1.01754748 -0.06152046   
	       6.000000            12.000000          2.16180939  2.33021103 -2.59720876   
	       8.000000            15.994915          4.66210124  3.35103364 -2.65780470   
	       6.000000            12.000000          1.86243859  0.48621643 -4.79015177   
	       8.000000            15.994915         -0.74974062  0.07767584 -5.28924480   
	       1.000000             1.007825         -1.00659471 -0.07457079  2.04843314   
	       1.000000             1.007825          2.62715857  2.12270224  1.47992880   
	       1.000000             1.007825          2.63096253 -0.87631111 -0.07790175   
	       1.000000             1.007825          0.86018686  3.93031391 -2.78163293   
	       1.000000             1.007825          4.84262459  4.17214033 -4.28357743   
	       1.000000             1.007825          2.72749377 -1.34455408 -4.36886891   
	       1.000000             1.007825          2.70776933  1.24183324 -6.52020131   
	       1.000000             1.007825         -0.83794567 -1.10111979 -6.69057295   

	 - Coordinate -           - BOHR/RAD -       - ANG/DEG -
	 H(1,8)           =         3.865189           2.045370
	 H(1,9)           =         3.868032           2.046874
	 H(4,10)          =         3.847785           2.036160
	 H(6,12)          =         3.867944           2.046828
	 H(6,13)          =         3.850311           2.037497
	 R(1,2)           =         2.690437           1.423718
	 R(1,7)           =         1.837713           0.972476
	 R(2,3)           =         2.878184           1.523069
	 R(2,8)           =         2.069339           1.095047
	 R(2,9)           =         2.068335           1.094516
	 R(3,4)           =         2.701335           1.429485
	 R(3,5)           =         2.880788           1.524447
	 R(3,10)          =         2.070885           1.095865
	 R(4,11)          =         1.830285           0.968545
	 R(5,6)           =         2.690628           1.423819
	 R(5,12)          =         2.068217           1.094453
	 R(5,13)          =         2.068481           1.094593
	 R(6,14)          =         1.833319           0.970151
	 B(1,2,3)         =         1.901381         108.941128
	 B(1,2,8)         =         1.882899         107.882144
	 B(1,2,9)         =         1.885524         108.032573
	 B(2,1,7)         =         1.868878         107.078802
	 B(2,3,4)         =         1.884483         107.972939
	 B(2,3,5)         =         1.945114         111.446835
	 B(2,3,10)        =         1.930256         110.595500
	 B(3,2,8)         =         1.941610         111.246046
	 B(3,2,9)         =         1.939122         111.103531
	 B(3,4,11)        =         1.855370         106.304889
	 B(3,5,6)         =         1.916953         109.833301
	 B(3,5,12)        =         1.947749         111.597817
	 B(3,5,13)        =         1.939477         111.123820
	 B(4,3,5)         =         1.897583         108.723483
	 B(4,3,10)        =         1.862696         106.724607
	 B(5,3,10)        =         1.940646         111.190826
	 B(5,6,14)        =         1.860975         106.626041
	 B(6,5,12)        =         1.885405         108.025725
	 B(6,5,13)        =         1.872429         107.282278
	 B(8,2,9)         =         1.911546         109.523508
	 B(12,5,13)       =         1.899479         108.832111
	 D(1,2,3,4)       =         2.792527         159.999999
	 D(1,2,3,5)       =        -1.407760         -80.658726
	 D(1,2,3,10)      =         0.760450          43.570591
	 D(2,3,4,11)      =         3.141593         180.000000
	 D(2,3,5,6)       =         1.396263          79.999995
	 D(2,3,5,12)      =        -0.694191         -39.774211
	 D(2,3,5,13)      =        -2.817853        -161.451070
	 D(3,2,1,7)       =         3.141593         180.000000
	 D(3,5,6,14)      =         3.141593         180.000000
	 D(4,3,2,8)       =         0.719091          41.200907
	 D(4,3,2,9)       =        -1.415496         -81.101923
	 D(4,3,5,6)       =        -2.811824        -161.105626
	 D(4,3,5,12)      =         1.380907          79.120168
	 D(4,3,5,13)      =        -0.742754         -42.556691
	 D(5,3,2,8)       =         2.801990         160.542183
	 D(5,3,2,9)       =         0.667403          38.239353
	 D(5,3,4,11)      =         1.028825          58.947351
	 D(6,5,3,10)      =        -0.766081         -43.893181
	 D(7,1,2,8)       =        -1.031780         -59.116632
	 D(7,1,2,9)       =         1.033225          59.199419
	 D(8,2,3,10)      =        -1.312985         -75.228500
	 D(9,2,3,10)      =         2.835613         162.468670
	 D(10,3,4,11)     =        -1.066005         -61.077613
	 D(10,3,5,12)     =        -2.856535        -163.667387
	 D(10,3,5,13)     =         1.302989          74.655754
	 D(12,5,6,14)     =        -1.013531         -58.071027
	 D(13,5,6,14)     =         1.031608          59.106768


	        --- Internal Coordinate Step in ANG or DEG, aJ/ANG or AJ/DEG ---
	-------------------------------------------------------------------------------
	           Coordinate      Previous         Force          Change          New 
	           ----------      --------        ------          ------        ------
	               H(1,8)       2.04537       -0.00756        0.01583       2.06120
	               H(1,9)       2.04687       -0.01068        0.01655       2.06343
	              H(4,10)       2.03616       -0.00848        0.02537       2.06153
	              H(6,12)       2.04683       -0.00911        0.01719       2.06402
	              H(6,13)       2.03750       -0.00462        0.01672       2.05421
	               R(1,2)       1.42372       -0.06765       -0.01463       1.40909
	               R(1,7)       0.97248       -0.22498       -0.02667       0.94581
	               R(2,3)       1.52307       -0.03197       -0.00654       1.51653
	               R(2,8)       1.09505       -0.05322       -0.01182       1.08322
	               R(2,9)       1.09452       -0.04277       -0.01045       1.08407
	               R(3,4)       1.42948       -0.06995       -0.01332       1.41616
	               R(3,5)       1.52445       -0.00234       -0.00048       1.52397
	              R(3,10)       1.09586       -0.06622       -0.01491       1.08096
	              R(4,11)       0.96854       -0.18846       -0.02201       0.94653
	               R(5,6)       1.42382       -0.07086       -0.01474       1.40908
	              R(5,12)       1.09445       -0.04446       -0.01059       1.08387
	              R(5,13)       1.09459       -0.02874       -0.00714       1.08745
	              R(6,14)       0.97015       -0.20398       -0.02397       0.94618
	             B(1,2,3)     108.94113       -0.00045       -0.60893     108.33220
	             B(1,2,8)     107.88214        0.00061        3.03061     110.91276
	             B(1,2,9)     108.03257        0.00054        3.01082     111.04339
	             B(2,1,7)     107.07880        0.00033        1.44771     108.52651
	             B(2,3,4)     107.97294       -0.00085       -3.11296     104.85998
	             B(2,3,5)     111.44684        0.00107        3.29992     114.74676
	            B(2,3,10)     110.59550       -0.00037       -2.47457     108.12093
	             B(3,2,8)     111.24605       -0.00044       -2.98047     108.26558
	             B(3,2,9)     111.10353       -0.00018       -1.27614     109.82739
	            B(3,4,11)     106.30489        0.00063        2.75535     109.06023
	             B(3,5,6)     109.83330       -0.00038       -0.40853     109.42477
	            B(3,5,12)     111.59782       -0.00033       -2.07389     109.52393
	            B(3,5,13)     111.12382       -0.00033       -2.27402     108.84980
	             B(4,3,5)     108.72348       -0.00001        0.80282     109.52630
	            B(4,3,10)     106.72461        0.00067        3.85007     110.57467
	            B(5,3,10)     111.19083       -0.00054       -2.24642     108.94440
	            B(5,6,14)     106.62604        0.00053        2.30102     108.92706
	            B(6,5,12)     108.02572        0.00058        3.08023     111.10596
	            B(6,5,13)     107.28228        0.00052        2.78944     110.07171
	             B(8,2,9)     109.52351       -0.00003       -1.10621     108.41729
	           B(12,5,13)     108.83211       -0.00000       -1.01073     107.82138
	           D(1,2,3,4)     160.00000        0.00001        1.10246     161.10246
	           D(1,2,3,5)     -80.65873        0.00009        1.96474     -78.69398
	          D(1,2,3,10)      43.57059       -0.00010       -0.46305      43.10754
	          D(2,3,4,11)     180.00000        0.00048        4.39296     184.39296
	           D(2,3,5,6)      80.00000        0.00010       -1.74213      78.25786
	          D(2,3,5,12)     -39.77421       -0.00017       -3.98448     -43.75869
	          D(2,3,5,13)    -161.45107        0.00030        0.03526    -161.41581
	           D(3,2,1,7)     180.00000        0.00008        0.17875     180.17875
	          D(3,5,6,14)     180.00000        0.00001        1.04646     181.04646
	           D(4,3,2,8)      41.20091       -0.00019       -0.45250      40.74840
	           D(4,3,2,9)     -81.10192        0.00028        3.64265     -77.45927
	           D(4,3,5,6)    -161.10563       -0.00031       -3.05001    -164.15564
	          D(4,3,5,12)      79.12017       -0.00057       -5.29236      73.82781
	          D(4,3,5,13)     -42.55669       -0.00011       -1.27262     -43.82932
	           D(5,3,2,8)     160.54218       -0.00011        0.40978     160.95197
	           D(5,3,2,9)      38.23935        0.00036        4.50494      42.74429
	          D(5,3,4,11)      58.94735       -0.00030        1.83011      60.77746
	          D(6,5,3,10)     -43.89318        0.00019        0.79865     -43.09453
	           D(7,1,2,8)     -59.11663       -0.00035       -2.01432     -61.13095
	           D(7,1,2,9)      59.19942        0.00024        0.29328      59.49270
	          D(8,2,3,10)     -75.22850       -0.00030       -2.01801     -77.24651
	          D(9,2,3,10)     162.46867        0.00017        2.07715     164.54582
	         D(10,3,4,11)     -61.07761       -0.00003        1.78563     -59.29198
	         D(10,3,5,12)    -163.66739       -0.00007       -1.44370    -165.11108
	         D(10,3,5,13)      74.65575        0.00039        2.57604      77.23179
	         D(12,5,6,14)     -58.07103       -0.00026        0.17973     -57.89130
	         D(13,5,6,14)      59.10677        0.00031        2.36267      61.46944
	-------------------------------------------------------------------------------

	                                 ==> Convergence Check <==                                  
    
	Measures of convergence in internal coordinates in au.
    
	Criteria marked as inactive (o), active & met (*), and active & unmet ( ).

	----------------------------------------------------------------------------------------------
	   Step    Total Energy     Delta E     Max Force     RMS Force      Max Disp      RMS Disp   
	----------------------------------------------------------------------------------------------
	  Convergence Criteria     1.00e-06 *    3.00e-04 *             o    1.20e-03 *             o
	----------------------------------------------------------------------------------------------
	     1    -342.79360726   -3.43e+02      2.73e-02      7.35e-03 o    9.24e-02      3.89e-02 o  ~
	----------------------------------------------------------------------------------------------

Next Geometry in Ang 
	Fragment 1 (Ang)

	    O  -0.4295395793   0.3990028480   0.2158670959
	    C   0.9510003996   0.5453706813  -0.0254066962
	    C   1.1315994189   1.1938475343  -1.3843479982
	    O   2.4510915284   1.7078682320  -1.3690064888
	    C   0.9666240404   0.2493474005  -2.5689042675
	    O  -0.4048511899   0.0259095914  -2.8026254651
	    H  -0.5454162165  -0.0027961647   1.0642109069
	    H   1.4079993599   1.1853102787   0.7195777709
	    H   1.4534231402  -0.4150541019  -0.0066023281
	    H   0.4124135579   1.9960336740  -1.4723188148
	    H   2.6050855034   2.1880683126  -2.1700176790
	    H   1.4844752986  -0.6808046755  -2.3653924434
	    H   1.4257776460   0.7010929647  -3.4450602677
	    H  -0.4987861587  -0.5736050654  -3.5285867660


    Structure for next step:
    Molecular point group: c1
    Full point group: C1

    Geometry (in Angstrom), charge = 0, multiplicity = 1:

    O           -0.429539579252     0.399002847987     0.215867095857
    C            0.951000399630     0.545370681335    -0.025406696172
    C            1.131599418865     1.193847534287    -1.384347998154
    O            2.451091528389     1.707868231966    -1.369006488757
    C            0.966624040366     0.249347400454    -2.568904267540
    O           -0.404851189923     0.025909591374    -2.802625465093
    H           -0.545416216480    -0.002796164704     1.064210906904
    H            1.407999359930     1.185310278722     0.719577770907
    H            1.453423140220    -0.415054101861    -0.006602328133
    H            0.412413557892     1.996033674018    -1.472318814806
    H            2.605085503403     2.188068312647    -2.170017678997
    H            1.484475298588    -0.680804675465    -2.365392443374
    H            1.425777646028     0.701092964676    -3.445060267671
    H           -0.498786158656    -0.573605065438    -3.528586765971


Scratch directory: /mnt/storage/nobackup/nca121/scratch_dir/
gradient() will perform analytic gradient computation.
   => Libint2 <=

    Primary   basis highest AM E, G, H:  5, 4, 3
    Auxiliary basis highest AM E, G, H:  6, 5, 4
    Onebody   basis highest AM E, G, H:  6, 5, 4
    Solid Harmonics ordering:            gaussian

*** tstart() called on sb057.cluster
*** at Fri Sep 15 09:13:21 2023

   => Loading Basis Set <=

    Name: 6-31G*
    Role: ORBITAL
    Keyword: BASIS
    atoms 1, 4, 6 entry O          line   145 file /mnt/nfs/home/nca121/.conda/envs/p4env/share/psi4/basis/6-31gs.gbs 
    atoms 2-3, 5  entry C          line   111 file /mnt/nfs/home/nca121/.conda/envs/p4env/share/psi4/basis/6-31gs.gbs 
    atoms 7-14    entry H          line    44 file /mnt/nfs/home/nca121/.conda/envs/p4env/share/psi4/basis/6-31gs.gbs 


         ---------------------------------------------------------
                                   SCF
               by Justin Turney, Rob Parrish, Andy Simmonett
                          and Daniel G. A. Smith
                              RHF Reference
                        4 Threads,    500 MiB Core
         ---------------------------------------------------------

  ==> Geometry <==

    Molecular point group: c1
    Full point group: C1

    Geometry (in Angstrom), charge = 0, multiplicity = 1:

       Center              X                  Y                   Z               Mass       
    ------------   -----------------  -----------------  -----------------  -----------------
         O           -0.429539579252     0.399002847987     0.215867095857    15.994914619570
         C            0.951000399630     0.545370681335    -0.025406696172    12.000000000000
         C            1.131599418865     1.193847534287    -1.384347998154    12.000000000000
         O            2.451091528389     1.707868231966    -1.369006488757    15.994914619570
         C            0.966624040366     0.249347400454    -2.568904267540    12.000000000000
         O           -0.404851189923     0.025909591374    -2.802625465093    15.994914619570
         H           -0.545416216480    -0.002796164704     1.064210906904     1.007825032230
         H            1.407999359930     1.185310278722     0.719577770907     1.007825032230
         H            1.453423140220    -0.415054101861    -0.006602328133     1.007825032230
         H            0.412413557892     1.996033674018    -1.472318814806     1.007825032230
         H            2.605085503403     2.188068312647    -2.170017678997     1.007825032230
         H            1.484475298588    -0.680804675465    -2.365392443374     1.007825032230
         H            1.425777646028     0.701092964676    -3.445060267671     1.007825032230
         H           -0.498786158656    -0.573605065438    -3.528586765971     1.007825032230

  Running in c1 symmetry.

  Rotational constants: A =      0.11389  B =      0.04198  C =      0.03243 [cm^-1]
  Rotational constants: A =   3414.48388  B =   1258.67514  C =    972.09127 [MHz]
  Nuclear repulsion =  263.621388641093404

  Charge       = 0
  Multiplicity = 1
  Electrons    = 50
  Nalpha       = 25
  Nbeta        = 25

  ==> Algorithm <==

  SCF Algorithm Type is DF.
  DIIS enabled.
  MOM disabled.
  Fractional occupation disabled.
  Guess Type is READ.
  Energy threshold   = 1.00e-08
  Density threshold  = 1.00e-08
  Integral threshold = 1.00e-12

  ==> Primary Basis <==

  Basis Set: 6-31G*
    Blend: 6-31G*
    Number of shells: 52
    Number of basis functions: 106
    Number of Cartesian functions: 106
    Spherical Harmonics?: false
    Max angular momentum: 2

   => Loading Basis Set <=

    Name: (6-31G* AUX)
    Role: JKFIT
    Keyword: DF_BASIS_SCF
    atoms 1, 4, 6 entry O          line   221 file /mnt/nfs/home/nca121/.conda/envs/p4env/share/psi4/basis/cc-pvdz-jkfit.gbs 
    atoms 2-3, 5  entry C          line   121 file /mnt/nfs/home/nca121/.conda/envs/p4env/share/psi4/basis/cc-pvdz-jkfit.gbs 
    atoms 7-14    entry H          line    51 file /mnt/nfs/home/nca121/.conda/envs/p4env/share/psi4/basis/cc-pvdz-jkfit.gbs 

   => Loading Basis Set <=

    Name: 6-31G*
    Role: ORBITAL
    Keyword: BASIS
    atoms 1, 4, 6 entry O          line   145 file /mnt/nfs/home/nca121/.conda/envs/p4env/share/psi4/basis/6-31gs.gbs 
    atoms 2-3, 5  entry C          line   111 file /mnt/nfs/home/nca121/.conda/envs/p4env/share/psi4/basis/6-31gs.gbs 
    atoms 7-14    entry H          line    44 file /mnt/nfs/home/nca121/.conda/envs/p4env/share/psi4/basis/6-31gs.gbs 

  Reading orbitals from file /mnt/storage/nobackup/nca121/scratch_dir/out.mol.22007.180.npy, no projection.

  ==> Integral Setup <==

  DFHelper Memory: AOs need 0.063 GiB; user supplied 0.366 GiB. 
  Using in-core AOs.

  ==> MemDFJK: Density-Fitted J/K Matrices <==

    J tasked:                   Yes
    K tasked:                   Yes
    wK tasked:                   No
    OpenMP threads:               4
    Memory [MiB]:               375
    Algorithm:                 Core
    Schwarz Cutoff:           1E-12
    Mask sparsity (%):       1.2460
    Fitting Condition:        1E-10

   => Auxiliary Basis Set <=

  Basis Set: (6-31G* AUX)
    Blend: CC-PVDZ-JKFIT
    Number of shells: 216
    Number of basis functions: 686
    Number of Cartesian functions: 686
    Spherical Harmonics?: false
    Max angular momentum: 3

  Minimum eigenvalue in the overlap matrix is 3.2448071011E-03.
  Reciprocal condition number of the overlap matrix is 4.5008058147E-04.
    Using symmetric orthogonalization.

  ==> Pre-Iterations <==

  SCF Guess: Orbitals guess was supplied from a previous computation.

   -------------------------------------------------------
    Irrep   Nso     Nmo     Nalpha   Nbeta   Ndocc  Nsocc
   -------------------------------------------------------
     A        106     106      25      25      25       0
   -------------------------------------------------------
    Total     106     106      25      25      25       0
   -------------------------------------------------------

  ==> Iterations <==

                           Total Energy        Delta E     RMS |[F,P]|

   @DF-RHF iter   0:  -342.87526188011162   -3.42875e+02   1.35758e-03 
   @DF-RHF iter   1:  -342.80009512108899    7.51668e-02   2.39275e-04 ADIIS/DIIS
   @DF-RHF iter   2:  -342.80060683910369   -5.11718e-04   8.95578e-05 DIIS
   @DF-RHF iter   3:  -342.80068163264252   -7.47935e-05   4.07783e-05 DIIS
   @DF-RHF iter   4:  -342.80069688708898   -1.52544e-05   9.77761e-06 DIIS
   @DF-RHF iter   5:  -342.80069796075628   -1.07367e-06   3.20548e-06 DIIS
   @DF-RHF iter   6:  -342.80069810124746   -1.40491e-07   1.02335e-06 DIIS
   @DF-RHF iter   7:  -342.80069811580364   -1.45562e-08   2.67790e-07 DIIS
   @DF-RHF iter   8:  -342.80069811699582   -1.19218e-09   7.82634e-08 DIIS
   @DF-RHF iter   9:  -342.80069811705363   -5.78098e-11   2.77715e-08 DIIS
   @DF-RHF iter  10:  -342.80069811706221   -8.58336e-12   6.38009e-09 DIIS
  Energy and wave function converged.


  ==> Post-Iterations <==

    Orbital Energies [Eh]
    ---------------------

    Doubly Occupied:                                                      

       1A    -20.562044     2A    -20.555583     3A    -20.550150  
       4A    -11.273778     5A    -11.273097     6A    -11.265185  
       7A     -1.376260     8A     -1.357249     9A     -1.353185  
      10A     -1.024575    11A     -0.922670    12A     -0.803422  
      13A     -0.730843    14A     -0.687737    15A     -0.673092  
      16A     -0.657784    17A     -0.618030    18A     -0.581917  
      19A     -0.566357    20A     -0.528296    21A     -0.521109  
      22A     -0.473050    23A     -0.451087    24A     -0.436106  
      25A     -0.428335  

    Virtual:                                                              

      26A      0.215333    27A      0.222969    28A      0.242173  
      29A      0.280878    30A      0.310866    31A      0.317775  
      32A      0.337918    33A      0.349585    34A      0.408625  
      35A      0.411984    36A      0.421307    37A      0.480205  
      38A      0.507149    39A      0.740462    40A      0.745525  
      41A      0.807300    42A      0.844151    43A      0.859701  
      44A      0.892597    45A      0.952462    46A      0.980029  
      47A      1.038713    48A      1.064056    49A      1.080150  
      50A      1.104002    51A      1.123741    52A      1.129218  
      53A      1.149150    54A      1.184747    55A      1.198043  
      56A      1.226303    57A      1.250681    58A      1.263267  
      59A      1.278292    60A      1.287529    61A      1.334060  
      62A      1.344160    63A      1.388785    64A      1.456994  
      65A      1.487833    66A      1.571891    67A      1.691539  
      68A      1.740380    69A      1.741303    70A      1.797822  
      71A      1.916142    72A      1.929251    73A      1.947212  
      74A      1.993785    75A      2.036306    76A      2.051414  
      77A      2.079667    78A      2.156162    79A      2.222602  
      80A      2.232786    81A      2.284471    82A      2.387522  
      83A      2.407524    84A      2.426136    85A      2.438581  
      86A      2.487469    87A      2.565663    88A      2.670385  
      89A      2.710597    90A      2.752684    91A      2.816137  
      92A      2.850196    93A      2.878984    94A      2.890002  
      95A      2.927335    96A      3.026202    97A      3.059290  
      98A      3.227311    99A      3.269750   100A      3.331846  
     101A      4.066665   102A      4.277091   103A      4.308470  
     104A      4.622616   105A      4.829737   106A      4.996259  

    Final Occupation by Irrep:
              A 
    DOCC [    25 ]
    NA   [    25 ]
    NB   [    25 ]

  @DF-RHF Final Energy:  -342.80069811706221

   => Energetics <=

    Nuclear Repulsion Energy =            263.6213886410934037
    One-Electron Energy =                -993.5022950807826874
    Two-Electron Energy =                 387.0802083226270724
    Total Energy =                       -342.8006981170622112

Computation Completed


Properties will be evaluated at   0.000000,   0.000000,   0.000000 [a0]

Properties computed using the SCF density matrix


 Multipole Moments:

 ------------------------------------------------------------------------------------
     Multipole            Electronic (a.u.)      Nuclear  (a.u.)        Total (a.u.)
 ------------------------------------------------------------------------------------

 L = 1.  Multiply by 2.5417464519 to convert [e a0] to [Debye]
 Dipole X            :        -73.1533302           73.6500374            0.4967072
 Dipole Y            :        -63.5047828           63.1015161           -0.4032667
 Dipole Z            :        125.6545554         -126.0868021           -0.4322467
 Magnitude           :                                                    0.7721265

 ------------------------------------------------------------------------------------

*** tstop() called on sb057.cluster at Fri Sep 15 09:13:22 2023
Module time:
	user time   =       3.20 seconds =       0.05 minutes
	system time =       0.26 seconds =       0.00 minutes
	total time  =          1 seconds =       0.02 minutes
Total time:
	user time   =      10.91 seconds =       0.18 minutes
	system time =       1.06 seconds =       0.02 minutes
	total time  =          6 seconds =       0.10 minutes

*** tstart() called on sb057.cluster
*** at Fri Sep 15 09:13:22 2023


         ------------------------------------------------------------
                                   SCF GRAD                          
                          Rob Parrish, Justin Turney,                
                       Andy Simmonett, and Alex Sokolov              
         ------------------------------------------------------------

  ==> Geometry <==

    Molecular point group: c1
    Full point group: C1

    Geometry (in Angstrom), charge = 0, multiplicity = 1:

       Center              X                  Y                   Z               Mass       
    ------------   -----------------  -----------------  -----------------  -----------------
         O           -0.429539579252     0.399002847987     0.215867095857    15.994914619570
         C            0.951000399630     0.545370681335    -0.025406696172    12.000000000000
         C            1.131599418865     1.193847534287    -1.384347998154    12.000000000000
         O            2.451091528389     1.707868231966    -1.369006488757    15.994914619570
         C            0.966624040366     0.249347400454    -2.568904267540    12.000000000000
         O           -0.404851189923     0.025909591374    -2.802625465093    15.994914619570
         H           -0.545416216480    -0.002796164704     1.064210906904     1.007825032230
         H            1.407999359930     1.185310278722     0.719577770907     1.007825032230
         H            1.453423140220    -0.415054101861    -0.006602328133     1.007825032230
         H            0.412413557892     1.996033674018    -1.472318814806     1.007825032230
         H            2.605085503403     2.188068312647    -2.170017678997     1.007825032230
         H            1.484475298588    -0.680804675465    -2.365392443374     1.007825032230
         H            1.425777646028     0.701092964676    -3.445060267671     1.007825032230
         H           -0.498786158656    -0.573605065438    -3.528586765971     1.007825032230

  Nuclear repulsion =  263.621388641093404

  ==> Basis Set <==

  Basis Set: 6-31G*
    Blend: 6-31G*
    Number of shells: 52
    Number of basis functions: 106
    Number of Cartesian functions: 106
    Spherical Harmonics?: false
    Max angular momentum: 2

  ==> DFJKGrad: Density-Fitted SCF Gradients <==

    Gradient:                    1
    J tasked:                  Yes
    K tasked:                  Yes
    wK tasked:                  No
    OpenMP threads:              4
    Integrals threads:           4
    Memory [MiB]:              375
    Schwarz Cutoff:          1E-12
    Fitting Condition:       1E-10

   => Auxiliary Basis Set <=

  Basis Set: (6-31G* AUX)
    Blend: CC-PVDZ-JKFIT
    Number of shells: 216
    Number of basis functions: 686
    Number of Cartesian functions: 686
    Spherical Harmonics?: false
    Max angular momentum: 3


  -Total Gradient:
     Atom            X                  Y                   Z
    ------   -----------------  -----------------  -----------------
       1       -0.006986384276     0.000642523703    -0.000842617565
       2        0.011487789822     0.000355593885    -0.000315118710
       3       -0.007870657748    -0.003435798695    -0.000873418062
       4        0.003460176628     0.003940305462     0.002549987573
       5        0.010572270668     0.000940582442     0.000503723482
       6       -0.007971617680    -0.001475260328    -0.001042298159
       7        0.001600693313     0.000504830091    -0.000464003390
       8       -0.000884024950    -0.001190101095    -0.000289478810
       9       -0.002013738097     0.001752922761    -0.000950638270
      10        0.002400968411    -0.001910416175     0.000819346720
      11       -0.001188955866    -0.001229144041    -0.000280977843
      12       -0.002209201902     0.001710362191     0.000409771857
      13       -0.001196657705    -0.001135695452     0.000867838952
      14        0.000799339384     0.000529295252    -0.000092117779


*** tstop() called on sb057.cluster at Fri Sep 15 09:13:22 2023
Module time:
	user time   =       2.29 seconds =       0.04 minutes
	system time =       0.13 seconds =       0.00 minutes
	total time  =          0 seconds =       0.00 minutes
Total time:
	user time   =      13.21 seconds =       0.22 minutes
	system time =       1.19 seconds =       0.02 minutes
	total time  =          6 seconds =       0.10 minutes

    			-----------------------------------------

    			 OPTKING 3.0: for geometry optimizations 

    			     By R.A. King, Bethel University     

    			        with contributions from          

    			    A.V. Copan, J. Cayton, A. Heide      

    			-----------------------------------------

    
	                            ===> Fragment 1 <== 

	 Z (Atomic Numbers)          Masses                          Geom                  
	       8.000000            15.994915         -0.81171216  0.75400611  0.40792969   
	       6.000000            12.000000          1.79713030  1.03060122 -0.04801170   
	       6.000000            12.000000          2.13841299  2.25604488 -2.61603858   
	       8.000000            15.994915          4.63189170  3.22740322 -2.58704733   
	       6.000000            12.000000          1.82665470  0.47119830 -4.85452551   
	       8.000000            15.994915         -0.76505787  0.04896203 -5.29619456   
	       1.000000             1.007825         -1.03068727 -0.00528399  2.01106715   
	       1.000000             1.007825          2.66073318  2.23991180  1.35980491   
	       1.000000             1.007825          2.74657168 -0.78433858 -0.01247659   
	       1.000000             1.007825          0.77934867  3.77195698 -2.78227933   
	       1.000000             1.007825          4.92289813  4.13484985 -4.10073910   
	       1.000000             1.007825          2.80525175 -1.28653438 -4.46994390   
	       1.000000             1.007825          2.69432927  1.32487369 -6.51022039   
	       1.000000             1.007825         -0.94256924 -1.08395648 -6.66806260   

	 - Coordinate -           - BOHR/RAD -       - ANG/DEG -
	 H(1,8)           =         3.895107           2.061202
	 H(1,9)           =         3.899311           2.063427
	 H(4,10)          =         3.895734           2.061534
	 H(6,12)          =         3.900430           2.064018
	 H(6,13)          =         3.881903           2.054214
	 R(1,2)           =         2.662789           1.409087
	 R(1,7)           =         1.787322           0.945810
	 R(2,3)           =         2.865824           1.516529
	 R(2,8)           =         2.046995           1.083223
	 R(2,9)           =         2.048587           1.084065
	 R(3,4)           =         2.676156           1.416161
	 R(3,5)           =         2.879877           1.523966
	 R(3,10)          =         2.042714           1.080958
	 R(4,11)          =         1.788689           0.946533
	 R(5,6)           =         2.662767           1.409076
	 R(5,12)          =         2.048214           1.083868
	 R(5,13)          =         2.054981           1.087449
	 R(6,14)          =         1.788026           0.946183
	 B(1,2,3)         =         1.890754         108.332196
	 B(1,2,8)         =         1.935793         110.912755
	 B(1,2,9)         =         1.938073         111.043395
	 B(2,1,7)         =         1.894145         108.526509
	 B(2,3,4)         =         1.830152         104.859982
	 B(2,3,5)         =         2.002709         114.746759
	 B(2,3,10)        =         1.887066         108.120926
	 B(3,2,8)         =         1.889591         108.265576
	 B(3,2,9)         =         1.916850         109.827393
	 B(3,4,11)        =         1.903460         109.060234
	 B(3,5,6)         =         1.909822         109.424768
	 B(3,5,12)        =         1.911553         109.523927
	 B(3,5,13)        =         1.899787         108.849799
	 B(4,3,5)         =         1.911595         109.526299
	 B(4,3,10)        =         1.929892         110.574674
	 B(5,3,10)        =         1.901439         108.944403
	 B(5,6,14)        =         1.901136         108.927061
	 B(6,5,12)        =         1.939165         111.105959
	 B(6,5,13)        =         1.921114         110.071714
	 B(8,2,9)         =         1.892239         108.417294
	 B(12,5,13)       =         1.881838         107.821381
	 D(1,2,3,4)       =         2.811768         161.102455
	 D(1,2,3,5)       =        -1.373469         -78.693981
	 D(1,2,3,10)      =         0.752369          43.107542
	 D(2,3,4,11)      =         3.218264         184.392962
	 D(2,3,5,6)       =         1.365857          78.257863
	 D(2,3,5,12)      =        -0.763733         -43.758688
	 D(2,3,5,13)      =        -2.817237        -161.415814
	 D(3,2,1,7)       =         3.144712         180.178753
	 D(3,5,6,14)      =         3.159857         181.046457
	 D(4,3,2,8)       =         0.711194          40.748404
	 D(4,3,2,9)       =        -1.351919         -77.459270
	 D(4,3,5,6)       =        -2.865056        -164.155639
	 D(4,3,5,12)      =         1.288538          73.827810
	 D(4,3,5,13)      =        -0.764966         -43.829316
	 D(5,3,2,8)       =         2.809142         160.951967
	 D(5,3,2,9)       =         0.746029          42.744293
	 D(5,3,4,11)      =         1.060767          60.777464
	 D(6,5,3,10)      =        -0.752141         -43.094532
	 D(7,1,2,8)       =        -1.066936         -61.130947
	 D(7,1,2,9)       =         1.038344          59.492702
	 D(8,2,3,10)      =        -1.348206         -77.246509
	 D(9,2,3,10)      =         2.871866         164.545817
	 D(10,3,4,11)     =        -1.034840         -59.291978
	 D(10,3,5,12)     =        -2.881732        -165.111083
	 D(10,3,5,13)     =         1.347949          77.231792
	 D(12,5,6,14)     =        -1.010394         -57.891301
	 D(13,5,6,14)     =         1.072844          61.469442


	        --- Internal Coordinate Step in ANG or DEG, aJ/ANG or AJ/DEG ---
	-------------------------------------------------------------------------------
	           Coordinate      Previous         Force          Change          New 
	           ----------      --------        ------          ------        ------
	               H(1,8)       2.06120       -0.00787       -0.00091       2.06029
	               H(1,9)       2.06343       -0.00850       -0.00200       2.06143
	              H(4,10)       2.06153        0.00241        0.00823       2.06977
	              H(6,12)       2.06402       -0.00862        0.00002       2.06404
	              H(6,13)       2.05421       -0.00897       -0.00135       2.05287
	               R(1,2)       1.40909       -0.02638       -0.00703       1.40205
	               R(1,7)       0.94581        0.00681       -0.00037       0.94544
	               R(2,3)       1.51653        0.03155        0.00679       1.52332
	               R(2,8)       1.08322        0.01656        0.00161       1.08483
	               R(2,9)       1.08407        0.02717        0.00378       1.08785
	               R(3,4)       1.41616       -0.02785       -0.00528       1.41088
	               R(3,5)       1.52397        0.00704        0.00157       1.52553
	              R(3,10)       1.08096        0.02354        0.00389       1.08484
	              R(4,11)       0.94653        0.00477       -0.00042       0.94611
	               R(5,6)       1.40908       -0.04500       -0.01015       1.39893
	              R(5,12)       1.08387        0.02680        0.00360       1.08747
	              R(5,13)       1.08745        0.02067        0.00259       1.09004
	              R(6,14)       0.94618        0.00283       -0.00076       0.94543
	             B(1,2,3)     108.33220        0.00022        1.09924     109.43144
	             B(1,2,8)     110.91276        0.00002        0.33036     111.24312
	             B(1,2,9)     111.04339       -0.00005        0.10033     111.14372
	             B(2,1,7)     108.52651        0.00021        1.07828     109.60479
	             B(2,3,4)     104.85998        0.00007        0.23671     105.09669
	             B(2,3,5)     114.74676        0.00004        0.14577     114.89253
	            B(2,3,10)     108.12093       -0.00003       -0.04197     108.07896
	             B(3,2,8)     108.26558       -0.00015       -0.91335     107.35222
	             B(3,2,9)     109.82739       -0.00003       -0.05578     109.77162
	            B(3,4,11)     109.06023        0.00020        1.08899     110.14923
	             B(3,5,6)     109.42477       -0.00007        0.01639     109.44115
	            B(3,5,12)     109.52393        0.00001        0.07569     109.59962
	            B(3,5,13)     108.84980       -0.00008       -0.62398     108.22582
	             B(4,3,5)     109.52630       -0.00012       -0.65624     108.87006
	            B(4,3,10)     110.57467        0.00006        0.81541     111.39008
	            B(5,3,10)     108.94440       -0.00001       -0.42150     108.52290
	            B(5,6,14)     108.92706        0.00011        0.61982     109.54688
	            B(6,5,12)     111.10596        0.00007        0.50637     111.61232
	            B(6,5,13)     110.07171        0.00010        0.44850     110.52022
	             B(8,2,9)     108.41729       -0.00001       -0.60739     107.80990
	           B(12,5,13)     107.82138       -0.00004       -0.45844     107.36294
	           D(1,2,3,4)     161.10246        0.00009        7.05317     168.15562
	           D(1,2,3,5)     -78.69398        0.00001        6.48419     -72.20979
	          D(1,2,3,10)      43.10754       -0.00001        6.00729      49.11484
	          D(2,3,4,11)     184.39296        0.00003        8.94811     193.34108
	           D(2,3,5,6)      78.25786       -0.00003       -4.18212      74.07574
	          D(2,3,5,12)     -43.75869       -0.00008       -4.86962     -48.62830
	          D(2,3,5,13)    -161.41581        0.00001       -4.00490    -165.42071
	           D(3,2,1,7)     180.17875        0.00003       -1.85079     178.32797
	          D(3,5,6,14)     181.04646       -0.00001        4.04120     185.08766
	           D(4,3,2,8)      40.74840        0.00003        6.55942      47.30783
	           D(4,3,2,9)     -77.45927        0.00015        7.84124     -69.61804
	           D(4,3,5,6)    -164.15564       -0.00000       -4.25035    -168.40599
	          D(4,3,5,12)      73.82781       -0.00005       -4.93784      68.88997
	          D(4,3,5,13)     -43.82932        0.00003       -4.07312     -47.90244
	           D(5,3,2,8)     160.95197       -0.00005        5.99045     166.94242
	           D(5,3,2,9)      42.74429        0.00007        7.27226      50.01655
	          D(5,3,4,11)      60.77746        0.00001        8.99555      69.77302
	          D(6,5,3,10)     -43.09453       -0.00001       -3.91194     -47.00648
	           D(7,1,2,8)     -61.13095       -0.00001       -2.08716     -63.21811
	           D(7,1,2,9)      59.49270       -0.00004       -2.56596      56.92674
	          D(8,2,3,10)     -77.24651       -0.00006        5.51355     -71.73296
	          D(9,2,3,10)     164.54582        0.00006        6.79536     171.34118
	         D(10,3,4,11)     -59.29198        0.00006        9.43201     -49.85996
	         D(10,3,5,12)    -165.11108       -0.00006       -4.59944    -169.71052
	         D(10,3,5,13)      77.23179        0.00002       -3.73472      73.49707
	         D(12,5,6,14)     -57.89130        0.00000        4.47658     -53.41472
	         D(13,5,6,14)      61.46944        0.00007        4.52354      65.99298
	-------------------------------------------------------------------------------

	                                 ==> Convergence Check <==                                  
    
	Measures of convergence in internal coordinates in au.
    
	Criteria marked as inactive (o), active & met (*), and active & unmet ( ).

	----------------------------------------------------------------------------------------------
	   Step    Total Energy     Delta E     Max Force     RMS Force      Max Disp      RMS Disp   
	----------------------------------------------------------------------------------------------
	  Convergence Criteria     1.00e-06 *    3.00e-04 *             o    1.20e-03 *             o
	----------------------------------------------------------------------------------------------
	     2    -342.80069812   -7.09e-03      5.46e-03      1.57e-03 o    1.65e-01      6.44e-02 o  ~
	----------------------------------------------------------------------------------------------

Next Geometry in Ang 
	Fragment 1 (Ang)

	    O  -0.4326558368   0.3425689049   0.1693972225
	    C   0.9377666705   0.5636966685  -0.0275693414
	    C   1.1574266556   1.1972017931  -1.3953885607
	    O   2.4997480439   1.6316017227  -1.3878688278
	    C   0.9495456590   0.2575741426  -2.5790851751
	    O  -0.4190183163   0.0289879362  -2.7573663536
	    H  -0.5695857480  -0.0741513230   1.0069268542
	    H   1.3359888378   1.2482971443   0.7137829178
	    H   1.4991576106  -0.3654976340   0.0420518635
	    H   0.4718817343   2.0322200498  -1.4936728413
	    H   2.6579266021   2.2139323238  -2.1165640893
	    H   1.4916031036  -0.6695913544  -2.4084221199
	    H   1.3773457500   0.7260605324  -3.4654840342
	    H  -0.5462340173  -0.6133093971  -3.4393509558


    Structure for next step:
    Molecular point group: c1
    Full point group: C1

    Geometry (in Angstrom), charge = 0, multiplicity = 1:

    O           -0.432655836760     0.342568904939     0.169397222510
    C            0.937766670470     0.563696668536    -0.027569341426
    C            1.157426655592     1.197201793145    -1.395388560678
    O            2.499748043914     1.631601722728    -1.387868827804
    C            0.949545658974     0.257574142615    -2.579085175060
    O           -0.419018316326     0.028987936219    -2.757366353563
    H           -0.569585747984    -0.074151322999     1.006926854248
    H            1.335988837820     1.248297144325     0.713782917767
    H            1.499157610638    -0.365497633965     0.042051863532
    H            0.471881734299     2.032220049788    -1.493672841266
    H            2.657926602072     2.213932323819    -2.116564089302
    H            1.491603103580    -0.669591354445    -2.408422119906
    H            1.377345750028     0.726060532440    -3.465484034246
    H           -0.546234017316    -0.613309397145    -3.439350955807


Scratch directory: /mnt/storage/nobackup/nca121/scratch_dir/
gradient() will perform analytic gradient computation.
   => Libint2 <=

    Primary   basis highest AM E, G, H:  5, 4, 3
    Auxiliary basis highest AM E, G, H:  6, 5, 4
    Onebody   basis highest AM E, G, H:  6, 5, 4
    Solid Harmonics ordering:            gaussian

*** tstart() called on sb057.cluster
*** at Fri Sep 15 09:13:22 2023

   => Loading Basis Set <=

    Name: 6-31G*
    Role: ORBITAL
    Keyword: BASIS
    atoms 1, 4, 6 entry O          line   145 file /mnt/nfs/home/nca121/.conda/envs/p4env/share/psi4/basis/6-31gs.gbs 
    atoms 2-3, 5  entry C          line   111 file /mnt/nfs/home/nca121/.conda/envs/p4env/share/psi4/basis/6-31gs.gbs 
    atoms 7-14    entry H          line    44 file /mnt/nfs/home/nca121/.conda/envs/p4env/share/psi4/basis/6-31gs.gbs 


         ---------------------------------------------------------
                                   SCF
               by Justin Turney, Rob Parrish, Andy Simmonett
                          and Daniel G. A. Smith
                              RHF Reference
                        4 Threads,    500 MiB Core
         ---------------------------------------------------------

  ==> Geometry <==

    Molecular point group: c1
    Full point group: C1

    Geometry (in Angstrom), charge = 0, multiplicity = 1:

       Center              X                  Y                   Z               Mass       
    ------------   -----------------  -----------------  -----------------  -----------------
         O           -0.432655836760     0.342568904939     0.169397222510    15.994914619570
         C            0.937766670470     0.563696668536    -0.027569341426    12.000000000000
         C            1.157426655592     1.197201793145    -1.395388560678    12.000000000000
         O            2.499748043914     1.631601722728    -1.387868827804    15.994914619570
         C            0.949545658974     0.257574142615    -2.579085175060    12.000000000000
         O           -0.419018316326     0.028987936219    -2.757366353563    15.994914619570
         H           -0.569585747984    -0.074151322999     1.006926854248     1.007825032230
         H            1.335988837820     1.248297144325     0.713782917767     1.007825032230
         H            1.499157610638    -0.365497633965     0.042051863532     1.007825032230
         H            0.471881734299     2.032220049788    -1.493672841266     1.007825032230
         H            2.657926602072     2.213932323819    -2.116564089302     1.007825032230
         H            1.491603103580    -0.669591354445    -2.408422119906     1.007825032230
         H            1.377345750028     0.726060532440    -3.465484034246     1.007825032230
         H           -0.546234017316    -0.613309397145    -3.439350955807     1.007825032230

  Running in c1 symmetry.

  Rotational constants: A =      0.11556  B =      0.04215  C =      0.03252 [cm^-1]
  Rotational constants: A =   3464.25725  B =   1263.50516  C =    975.05067 [MHz]
  Nuclear repulsion =  264.236208401006252

  Charge       = 0
  Multiplicity = 1
  Electrons    = 50
  Nalpha       = 25
  Nbeta        = 25

  ==> Algorithm <==

  SCF Algorithm Type is DF.
  DIIS enabled.
  MOM disabled.
  Fractional occupation disabled.
  Guess Type is READ.
  Energy threshold   = 1.00e-08
  Density threshold  = 1.00e-08
  Integral threshold = 1.00e-12

  ==> Primary Basis <==

  Basis Set: 6-31G*
    Blend: 6-31G*
    Number of shells: 52
    Number of basis functions: 106
    Number of Cartesian functions: 106
    Spherical Harmonics?: false
    Max angular momentum: 2

   => Loading Basis Set <=

    Name: (6-31G* AUX)
    Role: JKFIT
    Keyword: DF_BASIS_SCF
    atoms 1, 4, 6 entry O          line   221 file /mnt/nfs/home/nca121/.conda/envs/p4env/share/psi4/basis/cc-pvdz-jkfit.gbs 
    atoms 2-3, 5  entry C          line   121 file /mnt/nfs/home/nca121/.conda/envs/p4env/share/psi4/basis/cc-pvdz-jkfit.gbs 
    atoms 7-14    entry H          line    51 file /mnt/nfs/home/nca121/.conda/envs/p4env/share/psi4/basis/cc-pvdz-jkfit.gbs 

   => Loading Basis Set <=

    Name: 6-31G*
    Role: ORBITAL
    Keyword: BASIS
    atoms 1, 4, 6 entry O          line   145 file /mnt/nfs/home/nca121/.conda/envs/p4env/share/psi4/basis/6-31gs.gbs 
    atoms 2-3, 5  entry C          line   111 file /mnt/nfs/home/nca121/.conda/envs/p4env/share/psi4/basis/6-31gs.gbs 
    atoms 7-14    entry H          line    44 file /mnt/nfs/home/nca121/.conda/envs/p4env/share/psi4/basis/6-31gs.gbs 

  Reading orbitals from file /mnt/storage/nobackup/nca121/scratch_dir/out.mol.22007.180.npy, no projection.

  ==> Integral Setup <==

  DFHelper Memory: AOs need 0.063 GiB; user supplied 0.366 GiB. 
  Using in-core AOs.

  ==> MemDFJK: Density-Fitted J/K Matrices <==

    J tasked:                   Yes
    K tasked:                   Yes
    wK tasked:                   No
    OpenMP threads:               4
    Memory [MiB]:               375
    Algorithm:                 Core
    Schwarz Cutoff:           1E-12
    Mask sparsity (%):       1.1214
    Fitting Condition:        1E-10

   => Auxiliary Basis Set <=

  Basis Set: (6-31G* AUX)
    Blend: CC-PVDZ-JKFIT
    Number of shells: 216
    Number of basis functions: 686
    Number of Cartesian functions: 686
    Spherical Harmonics?: false
    Max angular momentum: 3

  Minimum eigenvalue in the overlap matrix is 3.2868019367E-03.
  Reciprocal condition number of the overlap matrix is 4.5678725451E-04.
    Using symmetric orthogonalization.

  ==> Pre-Iterations <==

  SCF Guess: Orbitals guess was supplied from a previous computation.

   -------------------------------------------------------
    Irrep   Nso     Nmo     Nalpha   Nbeta   Ndocc  Nsocc
   -------------------------------------------------------
     A        106     106      25      25      25       0
   -------------------------------------------------------
    Total     106     106      25      25      25       0
   -------------------------------------------------------

  ==> Iterations <==

                           Total Energy        Delta E     RMS |[F,P]|

   @DF-RHF iter   0:  -342.78926167357008   -3.42789e+02   1.52188e-03 
   @DF-RHF iter   1:  -342.80045725831019   -1.11956e-02   2.75610e-04 ADIIS/DIIS
   @DF-RHF iter   2:  -342.80128268035463   -8.25422e-04   1.03524e-04 ADIIS/DIIS
   @DF-RHF iter   3:  -342.80143513602934   -1.52456e-04   3.38073e-05 DIIS
   @DF-RHF iter   4:  -342.80144566714284   -1.05311e-05   1.00794e-05 DIIS
   @DF-RHF iter   5:  -342.80144747133733   -1.80419e-06   3.26090e-06 DIIS
   @DF-RHF iter   6:  -342.80144760533585   -1.33999e-07   1.01777e-06 DIIS
   @DF-RHF iter   7:  -342.80144761796674   -1.26309e-08   2.16092e-07 DIIS
   @DF-RHF iter   8:  -342.80144761859151   -6.24766e-10   5.06922e-08 DIIS
   @DF-RHF iter   9:  -342.80144761861817   -2.66596e-11   2.09140e-08 DIIS
   @DF-RHF iter  10:  -342.80144761862113   -2.95586e-12   4.89237e-09 DIIS
  Energy and wave function converged.


  ==> Post-Iterations <==

    Orbital Energies [Eh]
    ---------------------

    Doubly Occupied:                                                      

       1A    -20.562201     2A    -20.552819     3A    -20.549121  
       4A    -11.274360     5A    -11.270127     6A    -11.265251  
       7A     -1.377391     8A     -1.358273     9A     -1.354205  
      10A     -1.021729    11A     -0.920553    12A     -0.800792  
      13A     -0.734139    14A     -0.687538    15A     -0.675931  
      16A     -0.651711    17A     -0.620974    18A     -0.580913  
      19A     -0.566980    20A     -0.527999    21A     -0.517578  
      22A     -0.472881    23A     -0.446248    24A     -0.436387  
      25A     -0.422626  

    Virtual:                                                              

      26A      0.214744    27A      0.225026    28A      0.243312  
      29A      0.285104    30A      0.306718    31A      0.319777  
      32A      0.337051    33A      0.351395    34A      0.403373  
      35A      0.419633    36A      0.427383    37A      0.485138  
      38A      0.501353    39A      0.741659    40A      0.744674  
      41A      0.813720    42A      0.847676    43A      0.859718  
      44A      0.894092    45A      0.953947    46A      0.971206  
      47A      1.035097    48A      1.063003    49A      1.082911  
      50A      1.101216    51A      1.124082    52A      1.126448  
      53A      1.148155    54A      1.184761    55A      1.195773  
      56A      1.225516    57A      1.254524    58A      1.261528  
      59A      1.278313    60A      1.289086    61A      1.335938  
      62A      1.350255    63A      1.394373    64A      1.470222  
      65A      1.479535    66A      1.588556    67A      1.707344  
      68A      1.736250    69A      1.747021    70A      1.802752  
      71A      1.914535    72A      1.923671    73A      1.948420  
      74A      1.975260    75A      2.032630    76A      2.043595  
      77A      2.075911    78A      2.164338    79A      2.218695  
      80A      2.226657    81A      2.297502    82A      2.382697  
      83A      2.407718    84A      2.439652    85A      2.445545  
      86A      2.489320    87A      2.558731    88A      2.672889  
      89A      2.708323    90A      2.762347    91A      2.794158  
      92A      2.851731    93A      2.885458    94A      2.896770  
      95A      2.933811    96A      3.036728    97A      3.058992  
      98A      3.234252    99A      3.277086   100A      3.331189  
     101A      4.064017   102A      4.302511   103A      4.316134  
     104A      4.622814   105A      4.822721   106A      4.989842  

    Final Occupation by Irrep:
              A 
    DOCC [    25 ]
    NA   [    25 ]
    NB   [    25 ]

  @DF-RHF Final Energy:  -342.80144761862113

   => Energetics <=

    Nuclear Repulsion Energy =            264.2362084010062517
    One-Electron Energy =                -994.7778568454987180
    Two-Electron Energy =                 387.7402008258713408
    Total Energy =                       -342.8014476186211255

Computation Completed


Properties will be evaluated at   0.000000,   0.000000,   0.000000 [a0]

Properties computed using the SCF density matrix


 Multipole Moments:

 ------------------------------------------------------------------------------------
     Multipole            Electronic (a.u.)      Nuclear  (a.u.)        Total (a.u.)
 ------------------------------------------------------------------------------------

 L = 1.  Multiply by 2.5417464519 to convert [e a0] to [Debye]
 Dipole X            :        -73.5831903           74.0226679            0.4394776
 Dipole Y            :        -61.9758224           61.6694442           -0.3063782
 Dipole Z            :        126.2085537         -126.5732786           -0.3647249
 Magnitude           :                                                    0.6480991

 ------------------------------------------------------------------------------------

*** tstop() called on sb057.cluster at Fri Sep 15 09:13:23 2023
Module time:
	user time   =       3.27 seconds =       0.05 minutes
	system time =       0.21 seconds =       0.00 minutes
	total time  =          1 seconds =       0.02 minutes
Total time:
	user time   =      17.65 seconds =       0.29 minutes
	system time =       1.53 seconds =       0.03 minutes
	total time  =          7 seconds =       0.12 minutes

*** tstart() called on sb057.cluster
*** at Fri Sep 15 09:13:23 2023


         ------------------------------------------------------------
                                   SCF GRAD                          
                          Rob Parrish, Justin Turney,                
                       Andy Simmonett, and Alex Sokolov              
         ------------------------------------------------------------

  ==> Geometry <==

    Molecular point group: c1
    Full point group: C1

    Geometry (in Angstrom), charge = 0, multiplicity = 1:

       Center              X                  Y                   Z               Mass       
    ------------   -----------------  -----------------  -----------------  -----------------
         O           -0.432655836760     0.342568904939     0.169397222510    15.994914619570
         C            0.937766670470     0.563696668536    -0.027569341426    12.000000000000
         C            1.157426655592     1.197201793145    -1.395388560678    12.000000000000
         O            2.499748043914     1.631601722728    -1.387868827804    15.994914619570
         C            0.949545658974     0.257574142615    -2.579085175060    12.000000000000
         O           -0.419018316326     0.028987936219    -2.757366353563    15.994914619570
         H           -0.569585747984    -0.074151322999     1.006926854248     1.007825032230
         H            1.335988837820     1.248297144325     0.713782917767     1.007825032230
         H            1.499157610638    -0.365497633965     0.042051863532     1.007825032230
         H            0.471881734299     2.032220049788    -1.493672841266     1.007825032230
         H            2.657926602072     2.213932323819    -2.116564089302     1.007825032230
         H            1.491603103580    -0.669591354445    -2.408422119906     1.007825032230
         H            1.377345750028     0.726060532440    -3.465484034246     1.007825032230
         H           -0.546234017316    -0.613309397145    -3.439350955807     1.007825032230

  Nuclear repulsion =  264.236208401006252

  ==> Basis Set <==

  Basis Set: 6-31G*
    Blend: 6-31G*
    Number of shells: 52
    Number of basis functions: 106
    Number of Cartesian functions: 106
    Spherical Harmonics?: false
    Max angular momentum: 2

  ==> DFJKGrad: Density-Fitted SCF Gradients <==

    Gradient:                    1
    J tasked:                  Yes
    K tasked:                  Yes
    wK tasked:                  No
    OpenMP threads:              4
    Integrals threads:           4
    Memory [MiB]:              375
    Schwarz Cutoff:          1E-12
    Fitting Condition:       1E-10

   => Auxiliary Basis Set <=

  Basis Set: (6-31G* AUX)
    Blend: CC-PVDZ-JKFIT
    Number of shells: 216
    Number of basis functions: 686
    Number of Cartesian functions: 686
    Spherical Harmonics?: false
    Max angular momentum: 3


  -Total Gradient:
     Atom            X                  Y                   Z
    ------   -----------------  -----------------  -----------------
       1       -0.002041556356    -0.001285765776     0.001076272900
       2        0.002894271156     0.000637293851     0.000168802448
       3       -0.001422138008     0.001764596312    -0.000000884506
       4        0.000847729933     0.001128517387    -0.001362795542
       5        0.002921331542     0.000054463938    -0.000565806461
       6       -0.001431281743    -0.000647334818     0.000764646930
       7       -0.000615877961     0.000214475295    -0.000852110349
       8       -0.000168159514    -0.000626331136    -0.000793257804
       9       -0.000911402827    -0.000224416539     0.000751658897
      10        0.000086968166    -0.000938442041     0.000024316615
      11        0.000562034035    -0.000315509688     0.000584047356
      12       -0.000606469494    -0.000083895704    -0.000531581254
      13       -0.000402328150    -0.000317451488     0.000112531000
      14        0.000286879222     0.000639800408     0.000624159769


*** tstop() called on sb057.cluster at Fri Sep 15 09:13:24 2023
Module time:
	user time   =       2.25 seconds =       0.04 minutes
	system time =       0.11 seconds =       0.00 minutes
	total time  =          1 seconds =       0.02 minutes
Total time:
	user time   =      19.91 seconds =       0.33 minutes
	system time =       1.64 seconds =       0.03 minutes
	total time  =          8 seconds =       0.13 minutes

    			-----------------------------------------

    			 OPTKING 3.0: for geometry optimizations 

    			     By R.A. King, Bethel University     

    			        with contributions from          

    			    A.V. Copan, J. Cayton, A. Heide      

    			-----------------------------------------

    
	                            ===> Fragment 1 <== 

	 Z (Atomic Numbers)          Masses                          Geom                  
	       8.000000            15.994915         -0.81760104  0.64736141  0.32011436   
	       6.000000            12.000000          1.77212218  1.06523232 -0.05209850   
	       6.000000            12.000000          2.18721939  2.26238351 -2.63690222   
	       8.000000            15.994915          4.72383919  3.08328040 -2.62269198   
	       6.000000            12.000000          1.79438124  0.48674459 -4.87376464   
	       8.000000            15.994915         -0.79182986  0.05477926 -5.21066724   
	       1.000000             1.007825         -1.07636107 -0.14012569  1.90281598   
	       1.000000             1.007825          2.52465301  2.35893973  1.34885423   
	       1.000000             1.007825          2.83299730 -0.69069043  0.07946651   
	       1.000000             1.007825          0.89172724  3.84033932 -2.82263259   
	       1.000000             1.007825          5.02275334  4.18372575 -3.99972646   
	       1.000000             1.007825          2.81872135 -1.26534428 -4.55125820   
	       1.000000             1.007825          2.60280625  1.37205556 -6.54881572   
	       1.000000             1.007825         -1.03223269 -1.15898679 -6.49943136   

	 - Coordinate -           - BOHR/RAD -       - ANG/DEG -
	 H(1,8)           =         3.893388           2.060292
	 H(1,9)           =         3.895531           2.061426
	 H(4,10)          =         3.911291           2.069766
	 H(6,12)          =         3.900465           2.064037
	 H(6,13)          =         3.879357           2.052867
[...]
	         D(10,3,6,14)    -114.28909        0.00013        0.29568    -113.99341
	         D(12,5,6,14)      92.87202        0.00106        2.21212      95.08414
	         D(13,5,6,14)     181.96772        0.00057        1.22896     183.19668
	-------------------------------------------------------------------------------
Next Geometry in Ang 
	Fragment 1 (Ang)

	    O-608.5858403837-723.6586363257 -93.9981488667
	    C 318.1880848682-257.5676837669  39.7224037209
	    C 199.0415703724 372.3816971016  30.9843358740
	    O 932.7302889131 985.6270379015 140.2471469621
	    C 162.1327551997-169.6161826133  16.9784776655
	    O-1135.4327375929 -68.9457288961-159.1304023561
	    H-545.9582245672-1123.0147928926 -90.2485708750
	    H 240.0460618377 155.4001251601  35.7842232450
	    H1164.0429930809-774.0554251766 148.0068479220
	    H-652.5380334705 841.8357395364 -78.7463711917
	    H 682.18373147481459.3278762035 111.9745761830
	    H 137.6746137946-544.3668985609   7.5230248235
	    H 205.7359466378 422.3876515583  30.6118660994
	    H-1086.8503134533-567.2151877017-158.8480225903


    Structure for next step:
    Molecular point group: c1
    Full point group: C1

    Geometry (in Angstrom), charge = 0, multiplicity = 1:

    O         -608.585840383728  -723.658636325740   -93.998148866689
    C          318.188084868167  -257.567683766887    39.722403720932
    C          199.041570372382   372.381697101617    30.984335874020
    O          932.730288913077   985.627037901465   140.247146962120
    C          162.132755199710  -169.616182613307    16.978477665471
    O         -1135.432737592860   -68.945728896106  -159.130402356082
    H         -545.958224567208  -1123.014792892644   -90.248570874994
    H          240.046061837700   155.400125160118    35.784223244989
    H         1164.042993080918  -774.055425176571   148.006847922033
    H         -652.538033470488   841.835739536440   -78.746371191681
    H          682.183731474765  1459.327876203498   111.974576182953
    H          137.674613794638  -544.366898560878     7.523024823529
    H          205.735946637842   422.387651558271    30.611866099405
    H         -1086.850313453281  -567.215187701697  -158.848022590251


Scratch directory: /mnt/storage/nobackup/nca121/scratch_dir/
gradient() will perform analytic gradient computation.
   => Libint2 <=

    Primary   basis highest AM E, G, H:  5, 4, 3
    Auxiliary basis highest AM E, G, H:  6, 5, 4
    Onebody   basis highest AM E, G, H:  6, 5, 4
    Solid Harmonics ordering:            gaussian

*** tstart() called on sb057.cluster
*** at Fri Sep 15 09:14:11 2023

   => Loading Basis Set <=

    Name: 6-31G*
    Role: ORBITAL
    Keyword: BASIS
    atoms 1, 4, 6 entry O          line   145 file /mnt/nfs/home/nca121/.conda/envs/p4env/share/psi4/basis/6-31gs.gbs 
    atoms 2-3, 5  entry C          line   111 file /mnt/nfs/home/nca121/.conda/envs/p4env/share/psi4/basis/6-31gs.gbs 
    atoms 7-14    entry H          line    44 file /mnt/nfs/home/nca121/.conda/envs/p4env/share/psi4/basis/6-31gs.gbs 


         ---------------------------------------------------------
                                   SCF
               by Justin Turney, Rob Parrish, Andy Simmonett
                          and Daniel G. A. Smith
                              RHF Reference
                        4 Threads,    500 MiB Core
         ---------------------------------------------------------

  ==> Geometry <==

    Molecular point group: c1
    Full point group: C1

    Geometry (in Angstrom), charge = 0, multiplicity = 1:

       Center              X                  Y                   Z               Mass       
    ------------   -----------------  -----------------  -----------------  -----------------
         O         -608.585840383728  -723.658636325740   -93.998148866689    15.994914619570
         C          318.188084868167  -257.567683766887    39.722403720932    12.000000000000
         C          199.041570372382   372.381697101617    30.984335874020    12.000000000000
         O          932.730288913077   985.627037901465   140.247146962120    15.994914619570
         C          162.132755199710  -169.616182613307    16.978477665471    12.000000000000
         O         -1135.432737592860   -68.945728896106  -159.130402356082    15.994914619570
         H         -545.958224567208  -1123.014792892644   -90.248570874994     1.007825032230
         H          240.046061837700   155.400125160118    35.784223244989     1.007825032230
         H         1164.042993080918  -774.055425176571   148.006847922033     1.007825032230
         H         -652.538033470488   841.835739536440   -78.746371191681     1.007825032230
         H          682.183731474765  1459.327876203498   111.974576182953     1.007825032230
         H          137.674613794638  -544.366898560878     7.523024823529     1.007825032230
         H          205.735946637842   422.387651558271    30.611866099405     1.007825032230
         H         -1086.850313453281  -567.215187701697  -158.848022590251     1.007825032230

  Running in c1 symmetry.

  Rotational constants: A =      0.00000  B =      0.00000  C =      0.00000 [cm^-1]
  Rotational constants: A =      0.03370  B =      0.00781  C =      0.00634 [MHz]
  Nuclear repulsion =    0.693197267974036

  Charge       = 0
  Multiplicity = 1
  Electrons    = 50
  Nalpha       = 25
  Nbeta        = 25

  ==> Algorithm <==

  SCF Algorithm Type is DF.
  DIIS enabled.
  MOM disabled.
  Fractional occupation disabled.
  Guess Type is READ.
  Energy threshold   = 1.00e-08
  Density threshold  = 1.00e-08
  Integral threshold = 1.00e-12

  ==> Primary Basis <==

  Basis Set: 6-31G*
    Blend: 6-31G*
    Number of shells: 52
    Number of basis functions: 106
    Number of Cartesian functions: 106
    Spherical Harmonics?: false
    Max angular momentum: 2

   => Loading Basis Set <=

    Name: (6-31G* AUX)
    Role: JKFIT
    Keyword: DF_BASIS_SCF
    atoms 1, 4, 6 entry O          line   221 file /mnt/nfs/home/nca121/.conda/envs/p4env/share/psi4/basis/cc-pvdz-jkfit.gbs 
    atoms 2-3, 5  entry C          line   121 file /mnt/nfs/home/nca121/.conda/envs/p4env/share/psi4/basis/cc-pvdz-jkfit.gbs 
    atoms 7-14    entry H          line    51 file /mnt/nfs/home/nca121/.conda/envs/p4env/share/psi4/basis/cc-pvdz-jkfit.gbs 

   => Loading Basis Set <=

    Name: 6-31G*
    Role: ORBITAL
    Keyword: BASIS
    atoms 1, 4, 6 entry O          line   145 file /mnt/nfs/home/nca121/.conda/envs/p4env/share/psi4/basis/6-31gs.gbs 
    atoms 2-3, 5  entry C          line   111 file /mnt/nfs/home/nca121/.conda/envs/p4env/share/psi4/basis/6-31gs.gbs 
    atoms 7-14    entry H          line    44 file /mnt/nfs/home/nca121/.conda/envs/p4env/share/psi4/basis/6-31gs.gbs 

  Reading orbitals from file /mnt/storage/nobackup/nca121/scratch_dir/out.mol.22007.180.npy, no projection.

  ==> Integral Setup <==

  DFHelper Memory: AOs need 0.013 GiB; user supplied 0.366 GiB. 
  Using in-core AOs.

  ==> MemDFJK: Density-Fitted J/K Matrices <==

    J tasked:                   Yes
    K tasked:                   Yes
    wK tasked:                   No
    OpenMP threads:               4
    Memory [MiB]:               375
    Algorithm:                 Core
    Schwarz Cutoff:           1E-12
    Mask sparsity (%):      87.7002
    Fitting Condition:        1E-10

   => Auxiliary Basis Set <=

  Basis Set: (6-31G* AUX)
    Blend: CC-PVDZ-JKFIT
    Number of shells: 216
    Number of basis functions: 686
    Number of Cartesian functions: 686
    Spherical Harmonics?: false
    Max angular momentum: 3

  Minimum eigenvalue in the overlap matrix is 4.7554816867E-02.
  Reciprocal condition number of the overlap matrix is 1.3899183865E-02.
    Using symmetric orthogonalization.

  ==> Pre-Iterations <==

  SCF Guess: Orbitals guess was supplied from a previous computation.

   -------------------------------------------------------
    Irrep   Nso     Nmo     Nalpha   Nbeta   Ndocc  Nsocc
   -------------------------------------------------------
     A        106     106      25      25      25       0
   -------------------------------------------------------
    Total     106     106      25      25      25       0
   -------------------------------------------------------

  ==> Iterations <==

                           Total Energy        Delta E     RMS |[F,P]|

   @DF-RHF iter   0:  -333.79428262480019   -3.33794e+02   1.82354e-02 
   @DF-RHF iter   1:  -309.60676220771563    2.41875e+01   2.81715e-02 ADIIS/DIIS
   @DF-RHF iter   2:  -265.88379070318894    4.37230e+01   4.33403e-02 ADIIS/DIIS
   @DF-RHF iter   3:  -323.58430330486124   -5.77005e+01   2.35203e-02 ADIIS/DIIS
   @DF-RHF iter   4:  -324.65972551318214   -1.07542e+00   2.24499e-02 ADIIS/DIIS
   @DF-RHF iter   5:  -324.17505969919216    4.84666e-01   2.40033e-02 ADIIS/DIIS
   @DF-RHF iter   6:  -324.17388699689491    1.17270e-03   2.40761e-02 ADIIS/DIIS
   @DF-RHF iter   7:  -314.46061900333262    9.71327e+00   2.49447e-02 ADIIS/DIIS
   @DF-RHF iter   8:  -314.32278481330621    1.37834e-01   2.52243e-02 ADIIS/DIIS
   @DF-RHF iter   9:  -314.31529392994560    7.49088e-03   2.52734e-02 ADIIS/DIIS
   @DF-RHF iter  10:  -314.35688183754098   -4.15879e-02   2.62507e-02 ADIIS/DIIS
   @DF-RHF iter  11:  -314.47974319931791   -1.22861e-01   2.58639e-02 ADIIS/DIIS
   @DF-RHF iter  12:  -313.41623162050956    1.06351e+00   2.54597e-02 ADIIS/DIIS
   @DF-RHF iter  13:  -314.32224025927889   -9.06009e-01   2.51672e-02 ADIIS/DIIS
   @DF-RHF iter  14:  -314.33567357772955   -1.34333e-02   2.50575e-02 ADIIS/DIIS
   @DF-RHF iter  15:  -319.27300907958374   -4.93734e+00   2.88031e-02 ADIIS/DIIS
   @DF-RHF iter  16:  -319.01914316887462    2.53866e-01   2.93874e-02 ADIIS/DIIS
   @DF-RHF iter  17:  -318.76147064052981    2.57673e-01   3.07822e-02 ADIIS/DIIS
   @DF-RHF iter  18:  -278.92434349533562    3.98371e+01   2.80186e-02 ADIIS/DIIS
   @DF-RHF iter  19:  -318.27159253402397   -3.93472e+01   3.08786e-02 ADIIS/DIIS
   @DF-RHF iter  20:  -317.96840356192837    3.03189e-01   2.69858e-02 ADIIS/DIIS
   @DF-RHF iter  21:  -319.85062675505753   -1.88222e+00   2.55978e-02 ADIIS/DIIS
   @DF-RHF iter  22:  -325.03342510951677   -5.18280e+00   2.39023e-02 ADIIS/DIIS
   @DF-RHF iter  23:  -322.69273363675734    2.34069e+00   2.31545e-02 ADIIS/DIIS
   @DF-RHF iter  24:  -331.75015427224974   -9.05742e+00   2.24562e-02 ADIIS/DIIS
   @DF-RHF iter  25:  -325.51755372552822    6.23260e+00   2.78385e-02 ADIIS/DIIS
   @DF-RHF iter  26:  -331.31402599968419   -5.79647e+00   2.01198e-02 ADIIS/DIIS
   @DF-RHF iter  27:  -326.40104754139145    4.91298e+00   2.71164e-02 ADIIS/DIIS
   @DF-RHF iter  28:  -327.97562659031769   -1.57458e+00   2.52231e-02 ADIIS/DIIS
   @DF-RHF iter  29:  -327.89320512227994    8.24215e-02   2.45045e-02 ADIIS/DIIS
   @DF-RHF iter  30:  -332.25182278150163   -4.35862e+00   2.05631e-02 ADIIS/DIIS
   @DF-RHF iter  31:  -314.27691588233944    1.79749e+01   2.46331e-02 ADIIS/DIIS
   @DF-RHF iter  32:  -331.41265595555961   -1.71357e+01   1.98573e-02 ADIIS/DIIS
   @DF-RHF iter  33:  -327.66878049737460    3.74388e+00   1.92984e-02 ADIIS/DIIS
   @DF-RHF iter  34:  -332.85444200842403   -5.18566e+00   1.69069e-02 ADIIS/DIIS
   @DF-RHF iter  35:  -324.49011943457901    8.36432e+00   2.55322e-02 ADIIS/DIIS
   @DF-RHF iter  36:  -319.75235179432485    4.73777e+00   1.52164e-02 ADIIS/DIIS
   @DF-RHF iter  37:  -319.61768220308176    1.34670e-01   1.41768e-02 ADIIS/DIIS
   @DF-RHF iter  38:  -324.04264495654377   -4.42496e+00   2.14980e-02 ADIIS/DIIS
   @DF-RHF iter  39:  -329.61686198738107   -5.57422e+00   1.90045e-02 ADIIS/DIIS
   @DF-RHF iter  40:  -328.21664082102757    1.40022e+00   2.11814e-02 ADIIS/DIIS
   @DF-RHF iter  41:  -296.36172999201830    3.18549e+01   2.41133e-02 ADIIS/DIIS
   @DF-RHF iter  42:  -331.41342077631271   -3.50517e+01   2.31350e-02 ADIIS/DIIS
   @DF-RHF iter  43:  -331.71056749289278   -2.97147e-01   2.21498e-02 ADIIS/DIIS
   @DF-RHF iter  44:  -333.20785363244494   -1.49729e+00   1.99039e-02 ADIIS/DIIS
   @DF-RHF iter  45:  -333.86053099250483   -6.52677e-01   2.06704e-02 ADIIS/DIIS
   @DF-RHF iter  46:  -327.97553242707818    5.88500e+00   2.43965e-02 ADIIS/DIIS
   @DF-RHF iter  47:  -323.76183690993804    4.21370e+00   2.19656e-02 ADIIS/DIIS
   @DF-RHF iter  48:  -332.43195029344434   -8.67011e+00   1.64439e-02 ADIIS/DIIS
   @DF-RHF iter  49:  -334.83090561127312   -2.39896e+00   1.48162e-02 ADIIS/DIIS
   @DF-RHF iter  50:  -315.45653411109447    1.93744e+01   1.61536e-02 ADIIS/DIIS
   @DF-RHF iter  51:  -334.16714530160664   -1.87106e+01   1.59485e-02 ADIIS/DIIS
   @DF-RHF iter  52:  -328.61025607256255    5.55689e+00   1.78989e-02 ADIIS/DIIS
   @DF-RHF iter  53:  -329.44105428373751   -8.30798e-01   1.89591e-02 ADIIS/DIIS
   @DF-RHF iter  54:  -329.52055000392824   -7.94957e-02   1.80462e-02 ADIIS/DIIS
   @DF-RHF iter  55:  -328.39012997530659    1.13042e+00   1.49661e-02 ADIIS/DIIS
   @DF-RHF iter  56:  -324.92976784622152    3.46036e+00   1.55864e-02 ADIIS/DIIS
   @DF-RHF iter  57:  -333.04149150549637   -8.11172e+00   1.80271e-02 ADIIS/DIIS
   @DF-RHF iter  58:  -333.02977400889466    1.17175e-02   1.80792e-02 ADIIS/DIIS
   @DF-RHF iter  59:  -333.15005373984565   -1.20280e-01   1.71581e-02 ADIIS/DIIS
   @DF-RHF iter  60:  -333.70059282906709   -5.50539e-01   1.70104e-02 ADIIS/DIIS
   @DF-RHF iter  61:  -325.93166293977299    7.76893e+00   1.91253e-02 ADIIS/DIIS
   @DF-RHF iter  62:  -332.26487013224607   -6.33321e+00   1.65714e-02 ADIIS/DIIS
   @DF-RHF iter  63:  -332.66129415723498   -3.96424e-01   1.71044e-02 ADIIS/DIIS
   @DF-RHF iter  64:  -332.66682332508549   -5.52917e-03   1.71004e-02 ADIIS/DIIS
   @DF-RHF iter  65:  -323.67965115695102    8.98717e+00   2.40677e-02 ADIIS/DIIS
   @DF-RHF iter  66:  -324.03801776014899   -3.58367e-01   2.30795e-02 ADIIS/DIIS
   @DF-RHF iter  67:  -329.30018430882137   -5.26217e+00   2.25359e-02 ADIIS/DIIS
   @DF-RHF iter  68:  -329.58778862055027   -2.87604e-01   2.15167e-02 ADIIS/DIIS
   @DF-RHF iter  69:  -329.08275966445467    5.05029e-01   2.04437e-02 ADIIS/DIIS
   @DF-RHF iter  70:  -328.74991318464259    3.32846e-01   2.16000e-02 ADIIS/DIIS
   @DF-RHF iter  71:  -332.35004738443723   -3.60013e+00   1.72395e-02 ADIIS/DIIS
   @DF-RHF iter  72:  -329.88793150459071    2.46212e+00   2.18752e-02 ADIIS/DIIS
   @DF-RHF iter  73:  -323.18456360446021    6.70337e+00   2.38860e-02 ADIIS/DIIS
   @DF-RHF iter  74:  -324.91197451849200   -1.72741e+00   2.24933e-02 ADIIS/DIIS
   @DF-RHF iter  75:  -326.00393370366885   -1.09196e+00   2.10498e-02 ADIIS/DIIS
   @DF-RHF iter  76:  -326.47651704281725   -4.72583e-01   2.48130e-02 ADIIS/DIIS
   @DF-RHF iter  77:  -328.04636567377975   -1.56985e+00   2.36720e-02 ADIIS/DIIS
   @DF-RHF iter  78:  -324.17772270425098    3.86864e+00   2.57412e-02 ADIIS/DIIS
   @DF-RHF iter  79:  -330.05794380514470   -5.88022e+00   2.11557e-02 ADIIS/DIIS
   @DF-RHF iter  80:  -322.57636404858681    7.48158e+00   2.39093e-02 ADIIS/DIIS
   @DF-RHF iter  81:  -318.36465621482625    4.21171e+00   2.41639e-02 ADIIS/DIIS
   @DF-RHF iter  82:  -323.11673290072343   -4.75208e+00   2.23106e-02 ADIIS/DIIS
   @DF-RHF iter  83:  -323.55845583996643   -4.41723e-01   2.07886e-02 ADIIS/DIIS
   @DF-RHF iter  84:  -334.88314545426994   -1.13247e+01   1.46463e-02 ADIIS/DIIS
   @DF-RHF iter  85:  -328.97800242230363    5.90514e+00   2.30859e-02 ADIIS/DIIS
   @DF-RHF iter  86:  -324.29015423172041    4.68785e+00   2.30021e-02 ADIIS/DIIS
   @DF-RHF iter  87:  -329.61835879594656   -5.32820e+00   2.14463e-02 ADIIS/DIIS
   @DF-RHF iter  88:  -329.35641349039804    2.61945e-01   2.20959e-02 ADIIS/DIIS
   @DF-RHF iter  89:  -327.21775928043496    2.13865e+00   2.07737e-02 ADIIS/DIIS
   @DF-RHF iter  90:  -330.12420782031444   -2.90645e+00   2.04112e-02 ADIIS/DIIS
   @DF-RHF iter  91:  -328.90728451803062    1.21692e+00   1.99209e-02 ADIIS/DIIS
   @DF-RHF iter  92:  -330.49140842384872   -1.58412e+00   1.71646e-02 ADIIS/DIIS
   @DF-RHF iter  93:  -328.91975643462649    1.57165e+00   2.28443e-02 ADIIS/DIIS
   @DF-RHF iter  94:  -328.90452666654420    1.52298e-02   2.04253e-02 ADIIS/DIIS
   @DF-RHF iter  95:  -330.55438595846334   -1.64986e+00   1.26225e-02 ADIIS/DIIS
   @DF-RHF iter  96:  -330.29272109493047    2.61665e-01   1.98369e-02 ADIIS/DIIS
   @DF-RHF iter  97:  -326.02712202865018    4.26560e+00   2.61773e-02 ADIIS/DIIS
   @DF-RHF iter  98:  -327.85012777953995   -1.82301e+00   2.26657e-02 ADIIS/DIIS
   @DF-RHF iter  99:  -326.01371312546280    1.83641e+00   2.58468e-02 ADIIS/DIIS
   @DF-RHF iter 100:  -327.32053004023743   -1.30682e+00   2.38568e-02 ADIIS/DIIS

PsiException: Could not converge SCF iterations in 100 iterations.

  Failed to converge.

Traceback (most recent call last):
  File "/mnt/nfs/home/nca121/.conda/envs/p4env/bin/psi4", line 372, in <module>
    exec(content)
  File "<string>", line 40, in <module>
  File "/mnt/nfs/home/nca121/.conda/envs/p4env/lib/python3.11/site-packages/psi4/driver/driver.py", line 1245, in optimize
    G, wfn = gradient(lowername, return_wfn=True, molecule=molecule, **kwargs)
             ^^^^^^^^^^^^^^^^^^^^^^^^^^^^^^^^^^^^^^^^^^^^^^^^^^^^^^^^^^^^^^^^^
  File "/mnt/nfs/home/nca121/.conda/envs/p4env/lib/python3.11/site-packages/psi4/driver/driver.py", line 639, in gradient
    wfn = procedures['gradient'][lowername](lowername, molecule=molecule, **kwargs)
          ^^^^^^^^^^^^^^^^^^^^^^^^^^^^^^^^^^^^^^^^^^^^^^^^^^^^^^^^^^^^^^^^^^^^^^^^^
  File "/mnt/nfs/home/nca121/.conda/envs/p4env/lib/python3.11/site-packages/psi4/driver/procrouting/proc.py", line 93, in select_scf_gradient
    return func(name, **kwargs)
           ^^^^^^^^^^^^^^^^^^^^
  File "/mnt/nfs/home/nca121/.conda/envs/p4env/lib/python3.11/site-packages/psi4/driver/procrouting/proc.py", line 2674, in run_scf_gradient
    ref_wfn = run_scf(name, **kwargs)
              ^^^^^^^^^^^^^^^^^^^^^^^
  File "/mnt/nfs/home/nca121/.conda/envs/p4env/lib/python3.11/site-packages/psi4/driver/procrouting/proc.py", line 2574, in run_scf
    scf_wfn = scf_helper(name, post_scf=False, **kwargs)
              ^^^^^^^^^^^^^^^^^^^^^^^^^^^^^^^^^^^^^^^^^^
  File "/mnt/nfs/home/nca121/.conda/envs/p4env/lib/python3.11/site-packages/psi4/driver/procrouting/proc.py", line 1873, in scf_helper
    e_scf = scf_wfn.compute_energy()
            ^^^^^^^^^^^^^^^^^^^^^^^^
  File "/mnt/nfs/home/nca121/.conda/envs/p4env/lib/python3.11/site-packages/psi4/driver/procrouting/scf_proc/scf_iterator.py", line 92, in scf_compute_energy
    raise e
  File "/mnt/nfs/home/nca121/.conda/envs/p4env/lib/python3.11/site-packages/psi4/driver/procrouting/scf_proc/scf_iterator.py", line 85, in scf_compute_energy
    self.iterations()
  File "/mnt/nfs/home/nca121/.conda/envs/p4env/lib/python3.11/site-packages/psi4/driver/procrouting/scf_proc/scf_iterator.py", line 526, in scf_iterate
    raise SCFConvergenceError("""SCF iterations""", self.iteration_, self, Ediff, Dnorm)

psi4.driver.p4util.exceptions.SCFConvergenceError: Could not converge SCF iterations in 100 iterations.


Printing out the relevant lines from the Psithon --> Python processed input file:
      H -0.443421751 -0.582687497 -3.540498734
    ""","mol")
    core.IO.set_default_namespace("mol")
    core.set_global_option("BASIS", "6-31G*")
    core.set_global_option("DYNAMIC_LEVEL", 1)
--> optimize('scf')
    E,wfn = prop('hf', properties = ['GRID_ESP', 'GRID_FIELD'], return_wfn=True)

!-------------------------------------------------------!
!                                                       !
!  Could not converge SCF iterations in 100 iterations. !
!                                                       !
!-------------------------------------------------------!

    Psi4 stopped on: Friday, 15 September 2023 09:14AM
    Psi4 wall time for execution: 0:00:59.60

*** Psi4 encountered an error. Buy a developer more coffee!
*** Resources and help at github.com/psi4/psi4.
